
.Version 6.12.3 of ABINIT 
.(MPI version, prepared for a x86_64_linux_intel12.0 computer) 

.Copyright (C) 1998-2012 ABINIT group . 
 ABINIT comes with ABSOLUTELY NO WARRANTY.
 It is free software, and you are welcome to redistribute it
 under certain conditions (GNU General Public License,
 see ~abinit/COPYING or http://www.gnu.org/copyleft/gpl.txt).

 ABINIT is a project of the Universite Catholique de Louvain,
 Corning Inc. and other collaborators, see ~abinit/doc/developers/contributors.txt .
 Please read ~abinit/doc/users/acknowledgments.html for suggested
 acknowledgments of the ABINIT effort.
 For more information, see http://www.abinit.org .

.Starting date : Sat 27 Aug 2016.
- ( at 18h34 )
  

 herald :  WARNING -
  The starting date is more than 3 years after the initial release
  of this version of ABINIT, namely Mar 2012.
  This version of ABINIT is not supported anymore.
  Action : please, switch to a more recent version of ABINIT.
- input  file    -> sno2gw.in
- output file    -> sno2gw.out
- root for input  files -> inp_gw
- root for output files -> out_gw


 DATASET    4 : space group P4_2/m n m (#136); Bravais tP (primitive tetrag.)
================================================================================
 Values of the parameters that define the memory need for DATASET  4.
   intxc =         0  ionmov =         0    iscf =         7 xclevel =         1
  lmnmax =         4   lnmax =         4   mband =       200  mffmem =         1
P  mgfft =        90   mkmem =         1 mpssoang=         4     mpw =     23040
  mqgrid =      4020   natom =         6    nfft =    486000    nkpt =        28
  nloalg =         4  nspden =         1 nspinor =         1  nsppol =         1
    nsym =         8  n1xccc =         0  ntypat =         2  occopt =         1
================================================================================
P This job should need less than                     213.231 Mbytes of memory.
  Rough estimation (10% accuracy) of disk space for files :
  WF disk file :   1968.752 Mbytes ; DEN or POT disk file :      3.710 Mbytes.
================================================================================

--------------------------------------------------------------------------------
------------- Echo of variables that govern the present computation ------------
--------------------------------------------------------------------------------
-
- outvars: echo of selected default values                                      
-   accesswff0 =  0 , fftalg0 =112 , wfoptalg0 =  0
-
- outvars: echo of global parameters not present in the input file              
-   nproc =   48
-
 -outvars: echo values of preprocessed input variables --------
            acell      8.9311033812E+00  8.9311033812E+00  6.0294376969E+00 Bohr
              amu      1.18710000E+02  1.59994000E+01
             bdgw           9      46       9      46       9      46       9      46
                            9      46       9      46       9      46       9      46
                            9      46       9      46       9      46       9      46
                            9      46       9      46       9      46       9      46
                            9      46       9      46       9      46       9      46
                            9      46       9      46       9      46       9      46
                            9      46       9      46       9      46       9      46
      chksymbreak           0
             ecut      9.99771778E+01 Hartree
         ecutsigx      9.99771778E+01 Hartree
          ecutwfn      9.99771778E+01 Hartree
        freqspmin     -1.10247976E+00 Hartree
        freqspmax      1.10247976E+00 Hartree
           getqps          -1
           getscr           1
           getkss           1
        gwcalctyp          12
            gwmem           0
           gwpara           2
           istwfk        1    0    1    0    0    0    1    0    0    0
                         0    0    0    0    0    0    0    0    0    0
                         0    1    0    1    0    0    0    1
              ixc           7
           jdtset        4
              kpt      0.00000000E+00  0.00000000E+00  0.00000000E+00
                       2.50000000E-01  0.00000000E+00  0.00000000E+00
                       5.00000000E-01  0.00000000E+00  0.00000000E+00
                       2.50000000E-01  2.50000000E-01  0.00000000E+00
                       5.00000000E-01  2.50000000E-01  0.00000000E+00
                      -2.50000000E-01  2.50000000E-01  0.00000000E+00
                       5.00000000E-01  5.00000000E-01  0.00000000E+00
                       0.00000000E+00  0.00000000E+00  1.66666667E-01
                       2.50000000E-01  0.00000000E+00  1.66666667E-01
                       5.00000000E-01  0.00000000E+00  1.66666667E-01
                       2.50000000E-01  2.50000000E-01  1.66666667E-01
                       5.00000000E-01  2.50000000E-01  1.66666667E-01
                      -2.50000000E-01  2.50000000E-01  1.66666667E-01
                       5.00000000E-01  5.00000000E-01  1.66666667E-01
                       0.00000000E+00  0.00000000E+00  3.33333333E-01
                       2.50000000E-01  0.00000000E+00  3.33333333E-01
                       5.00000000E-01  0.00000000E+00  3.33333333E-01
                       2.50000000E-01  2.50000000E-01  3.33333333E-01
                       5.00000000E-01  2.50000000E-01  3.33333333E-01
                      -2.50000000E-01  2.50000000E-01  3.33333333E-01
                       5.00000000E-01  5.00000000E-01  3.33333333E-01
                       0.00000000E+00  0.00000000E+00  5.00000000E-01
                       2.50000000E-01  0.00000000E+00  5.00000000E-01
                       5.00000000E-01  0.00000000E+00  5.00000000E-01
                       2.50000000E-01  2.50000000E-01  5.00000000E-01
                       5.00000000E-01  2.50000000E-01  5.00000000E-01
                      -2.50000000E-01  2.50000000E-01  5.00000000E-01
                       5.00000000E-01  5.00000000E-01  5.00000000E-01
            kptgw      0.00000000E+00  0.00000000E+00  0.00000000E+00
                       2.50000000E-01  0.00000000E+00  0.00000000E+00
                       5.00000000E-01  0.00000000E+00  0.00000000E+00
                       2.50000000E-01  2.50000000E-01  0.00000000E+00
                       5.00000000E-01  2.50000000E-01  0.00000000E+00
                      -2.50000000E-01  2.50000000E-01  0.00000000E+00
                       5.00000000E-01  5.00000000E-01  0.00000000E+00
                       0.00000000E+00  0.00000000E+00  1.66666667E-01
                       2.50000000E-01  0.00000000E+00  1.66666667E-01
                       5.00000000E-01  0.00000000E+00  1.66666667E-01
                       2.50000000E-01  2.50000000E-01  1.66666667E-01
                       5.00000000E-01  2.50000000E-01  1.66666667E-01
                      -2.50000000E-01  2.50000000E-01  1.66666667E-01
                       5.00000000E-01  5.00000000E-01  1.66666667E-01
                       0.00000000E+00  0.00000000E+00  3.33333333E-01
                       2.50000000E-01  0.00000000E+00  3.33333333E-01
                       5.00000000E-01  0.00000000E+00  3.33333333E-01
                       2.50000000E-01  2.50000000E-01  3.33333333E-01
                       5.00000000E-01  2.50000000E-01  3.33333333E-01
                      -2.50000000E-01  2.50000000E-01  3.33333333E-01
                       5.00000000E-01  5.00000000E-01  3.33333333E-01
                       0.00000000E+00  0.00000000E+00  5.00000000E-01
                       2.50000000E-01  0.00000000E+00  5.00000000E-01
                       5.00000000E-01  0.00000000E+00  5.00000000E-01
                       2.50000000E-01  2.50000000E-01  5.00000000E-01
                       5.00000000E-01  2.50000000E-01  5.00000000E-01
                      -2.50000000E-01  2.50000000E-01  5.00000000E-01
                       5.00000000E-01  5.00000000E-01  5.00000000E-01
          kptrlen      3.57244135E+01
         kptrlatt      4  0  0   0  4  0   0  0  6
P           mkmem           1
            natom           6
            nband         200
           ndtset           1
          nfreqsp        1000
            ngfft          90      90      60
           nkptgw          28
             nkpt          28
          npwsigx       23011
           npwwfn       23011
          nshsigx        3199
           nshwfn        3199
             nsym           8
           ntypat           2
              occ      2.000000  2.000000  2.000000  2.000000  2.000000  2.000000
                       2.000000  2.000000  2.000000  2.000000  2.000000  2.000000
                       2.000000  2.000000  2.000000  2.000000  2.000000  2.000000
                       2.000000  2.000000  2.000000  2.000000  2.000000  2.000000
                       2.000000  2.000000  2.000000  2.000000  2.000000  2.000000
                       2.000000  2.000000  2.000000  2.000000  0.000000  0.000000
                       0.000000  0.000000  0.000000  0.000000  0.000000  0.000000
                       0.000000  0.000000  0.000000  0.000000  0.000000  0.000000
                       0.000000  0.000000  0.000000  0.000000  0.000000  0.000000
                       0.000000  0.000000  0.000000  0.000000  0.000000  0.000000
                       0.000000  0.000000  0.000000  0.000000  0.000000  0.000000
                       0.000000  0.000000  0.000000  0.000000  0.000000  0.000000
                       0.000000  0.000000  0.000000  0.000000  0.000000  0.000000
                       0.000000  0.000000  0.000000  0.000000  0.000000  0.000000
                       0.000000  0.000000  0.000000  0.000000  0.000000  0.000000
                       0.000000  0.000000  0.000000  0.000000  0.000000  0.000000
                       0.000000  0.000000  0.000000  0.000000  0.000000  0.000000
                       0.000000  0.000000  0.000000  0.000000  0.000000  0.000000
                       0.000000  0.000000  0.000000  0.000000  0.000000  0.000000
                       0.000000  0.000000  0.000000  0.000000  0.000000  0.000000
                       0.000000  0.000000  0.000000  0.000000  0.000000  0.000000
                       0.000000  0.000000  0.000000  0.000000  0.000000  0.000000
                       0.000000  0.000000  0.000000  0.000000  0.000000  0.000000
                       0.000000  0.000000  0.000000  0.000000  0.000000  0.000000
                       0.000000  0.000000  0.000000  0.000000  0.000000  0.000000
                       0.000000  0.000000  0.000000  0.000000  0.000000  0.000000
                       0.000000  0.000000  0.000000  0.000000  0.000000  0.000000
                       0.000000  0.000000  0.000000  0.000000  0.000000  0.000000
                       0.000000  0.000000  0.000000  0.000000  0.000000  0.000000
                       0.000000  0.000000  0.000000  0.000000  0.000000  0.000000
                       0.000000  0.000000  0.000000  0.000000  0.000000  0.000000
                       0.000000  0.000000  0.000000  0.000000  0.000000  0.000000
                       0.000000  0.000000  0.000000  0.000000  0.000000  0.000000
                       0.000000  0.000000
        optdriver           4
          ppmodel           0
          spgroup         136
        symmorphi           0
           symrel      1  0  0   0  1  0   0  0  1      -1  0  0   0 -1  0   0  0 -1
                      -1  0  0   0 -1  0   0  0  1       1  0  0   0  1  0   0  0 -1
                       0  1  0   1  0  0   0  0  1       0 -1  0  -1  0  0   0  0 -1
                       0 -1  0  -1  0  0   0  0  1       0  1  0   1  0  0   0  0 -1
            typat      1  1  2  2  2  2
              wtk        0.01042    0.04167    0.02083    0.02083    0.04167    0.02083
                         0.01042    0.02083    0.08333    0.04167    0.04167    0.08333
                         0.04167    0.02083    0.02083    0.08333    0.04167    0.04167
                         0.08333    0.04167    0.02083    0.01042    0.04167    0.02083
                         0.02083    0.04167    0.02083    0.01042
           xangst      0.0000000000E+00  0.0000000000E+00  0.0000000000E+00
                       2.3630681784E+00  2.3630681784E+00  1.5953205049E+00
                       1.4470217143E+00  1.4470217143E+00  0.0000000000E+00
                      -1.4470217143E+00 -1.4470217143E+00  0.0000000000E+00
                       3.8100898928E+00  9.1604646412E-01  1.5953205049E+00
                       9.1604646412E-01  3.8100898928E+00  1.5953205049E+00
            xcart      0.0000000000E+00  0.0000000000E+00  0.0000000000E+00
                       4.4655516906E+00  4.4655516906E+00  3.0147188484E+00
                       2.7344747484E+00  2.7344747484E+00  0.0000000000E+00
                      -2.7344747484E+00 -2.7344747484E+00  0.0000000000E+00
                       7.2000264390E+00  1.7310769422E+00  3.0147188484E+00
                       1.7310769422E+00  7.2000264390E+00  3.0147188484E+00
             xred      0.0000000000E+00  0.0000000000E+00  0.0000000000E+00
                       5.0000000000E-01  5.0000000000E-01  5.0000000000E-01
                       3.0617434730E-01  3.0617434730E-01  0.0000000000E+00
                      -3.0617434730E-01 -3.0617434730E-01  0.0000000000E+00
                       8.0617434730E-01  1.9382565270E-01  5.0000000000E-01
                       1.9382565270E-01  8.0617434730E-01  5.0000000000E-01
            znucl       50.00000    8.00000

================================================================================

 chkinp: Checking input parameters for consistency, jdtset=   4.

================================================================================
== DATASET  4 ==================================================================

 mkfilename : getscr/=0, take file _SCR from output of DATASET   1.

 mkfilename : getkss/=0, take file _KSS from output of DATASET   1.

 Exchange-correlation functional for the present dataset will be:
  LDA: Perdew-Wang 92 LSD fit to Ceperley-Alder data - ixc=7
 Citation for XC functional:
  J.P.Perdew and Y.Wang, PRB 45, 13244 (1992)
 
 SIGMA: Calculation of the GW corrections

 Based on a program developped by R.W. Godby, V. Olevano, G. Onida, and L. Reining.
 Incorporated in ABINIT by V. Olevano, G.-M. Rignanese, and M. Torrent.
.Using single precision arithmetic ; gwpc =  4

 Real(R)+Recip(G) space primitive vectors, cartesian coordinates (Bohr,Bohr^-1):
 R(1)=  8.9311034  0.0000000  0.0000000  G(1)=  0.1119682  0.0000000  0.0000000
 R(2)=  0.0000000  8.9311034  0.0000000  G(2)=  0.0000000  0.1119682  0.0000000
 R(3)=  0.0000000  0.0000000  6.0294377  G(3)=  0.0000000  0.0000000  0.1658529
 Unit cell volume ucvol=  4.8093573E+02 bohr^3
 Angles (23,13,12)=  9.00000000E+01  9.00000000E+01  9.00000000E+01 degrees

--- Pseudopotential description ------------------------------------------------
- pspini: atom type   1  psp file is 50-Sn.LDA
- pspatm: opening atomic psp file    50-Sn.LDA
 tin, fhi98PP : Trouiller-Martins-type, LDA Ceperley/Alder Perdew/Wang (1992), l= 0 local
- 50.00000  22.00000     80709                znucl, zion, pspdat
    6    7    3    0       547   0.00000      pspcod,pspxc,lmax,lloc,mmax,r2well
    0.00000000000000    0.00000000000000    0.00000000000000   rchrg,fchrg,qchrg
  1.024700          amesh (Hamman grid)
 pspatm: epsatm=   29.23983954
         --- l  ekb(1:nproj) -->
             1  -14.248120
             2  -10.917135
             3   -9.562947
 pspatm: atomic psp has been read  and splines computed

- pspini: atom type   2  psp file is 8-O.LDA
- pspatm: opening atomic psp file    8-O.LDA
 Copper, fhi98PP
-  8.00000   6.00000     21024                znucl, zion, pspdat
    6    7    1    1       473   0.00000      pspcod,pspxc,lmax,lloc,mmax,r2well
    0.00000000000000    0.00000000000000    0.00000000000000   rchrg,fchrg,qchrg
  1.024700          amesh (Hamman grid)
 pspatm: epsatm=    1.43330031
         --- l  ekb(1:nproj) -->
             0    5.333375
 pspatm: atomic psp has been read  and splines computed

   4.36647586E+03                                ecore*ucvol(ha*bohr**3)
--------------------------------------------------------------------------------

 ==== K-mesh for the wavefunctions ====
 Number of points in the irreducible wedge :    28
 Reduced coordinates and weights :

     1)     0.00000000E+00  0.00000000E+00  0.00000000E+00       0.01042
     2)     2.50000000E-01  0.00000000E+00  0.00000000E+00       0.04167
     3)     5.00000000E-01  0.00000000E+00  0.00000000E+00       0.02083
     4)     2.50000000E-01  2.50000000E-01  0.00000000E+00       0.02083
     5)     5.00000000E-01  2.50000000E-01  0.00000000E+00       0.04167
     6)    -2.50000000E-01  2.50000000E-01  0.00000000E+00       0.02083
     7)     5.00000000E-01  5.00000000E-01  0.00000000E+00       0.01042
     8)     0.00000000E+00  0.00000000E+00  1.66666667E-01       0.02083
     9)     2.50000000E-01  0.00000000E+00  1.66666667E-01       0.08333
    10)     5.00000000E-01  0.00000000E+00  1.66666667E-01       0.04167
    11)     2.50000000E-01  2.50000000E-01  1.66666667E-01       0.04167
    12)     5.00000000E-01  2.50000000E-01  1.66666667E-01       0.08333
    13)    -2.50000000E-01  2.50000000E-01  1.66666667E-01       0.04167
    14)     5.00000000E-01  5.00000000E-01  1.66666667E-01       0.02083
    15)     0.00000000E+00  0.00000000E+00  3.33333333E-01       0.02083
    16)     2.50000000E-01  0.00000000E+00  3.33333333E-01       0.08333
    17)     5.00000000E-01  0.00000000E+00  3.33333333E-01       0.04167
    18)     2.50000000E-01  2.50000000E-01  3.33333333E-01       0.04167
    19)     5.00000000E-01  2.50000000E-01  3.33333333E-01       0.08333
    20)    -2.50000000E-01  2.50000000E-01  3.33333333E-01       0.04167
    21)     5.00000000E-01  5.00000000E-01  3.33333333E-01       0.02083
    22)     0.00000000E+00  0.00000000E+00  5.00000000E-01       0.01042
    23)     2.50000000E-01  0.00000000E+00  5.00000000E-01       0.04167
    24)     5.00000000E-01  0.00000000E+00  5.00000000E-01       0.02083
    25)     2.50000000E-01  2.50000000E-01  5.00000000E-01       0.02083
    26)     5.00000000E-01  2.50000000E-01  5.00000000E-01       0.04167
    27)    -2.50000000E-01  2.50000000E-01  5.00000000E-01       0.02083
    28)     5.00000000E-01  5.00000000E-01  5.00000000E-01       0.01042

 Together with  4 symmetry operations and time-reversal symmetry 
 yields    96 points in the full Brillouin Zone.


 ==== Q-mesh for screening function ====
 Number of points in the irreducible wedge :    28
 Reduced coordinates and weights :

     1)     9.99999975E-06  1.99999995E-05  2.99999992E-05       0.01042
     2)    -2.50000000E-01 -2.50000000E-01  0.00000000E+00       0.02083
     3)    -2.50000000E-01 -2.50000000E-01 -1.66666672E-01       0.04167
     4)     0.00000000E+00  0.00000000E+00 -1.66666672E-01       0.02083
     5)     2.50000000E-01  0.00000000E+00  0.00000000E+00       0.04167
     6)    -5.00000000E-01 -2.50000000E-01  0.00000000E+00       0.04167
     7)    -2.50000000E-01  5.00000000E-01 -1.66666672E-01       0.08333
     8)     0.00000000E+00  2.50000000E-01 -1.66666672E-01       0.08333
     9)    -5.00000000E-01  0.00000000E+00  0.00000000E+00       0.02083
    10)     2.50000000E-01 -2.50000000E-01  0.00000000E+00       0.02083
    11)    -2.50000000E-01  2.50000000E-01 -1.66666672E-01       0.04167
    12)     0.00000000E+00 -5.00000000E-01 -1.66666672E-01       0.04167
    13)    -5.00000000E-01 -5.00000000E-01  0.00000000E+00       0.01042
    14)     5.00000000E-01 -5.00000000E-01 -1.66666672E-01       0.02083
    15)    -2.50000000E-01 -2.50000000E-01 -3.33333343E-01       0.04167
    16)     0.00000000E+00  0.00000000E+00 -3.33333343E-01       0.02083
    17)    -2.50000000E-01  5.00000000E-01 -3.33333343E-01       0.08333
    18)     0.00000000E+00  2.50000000E-01 -3.33333343E-01       0.08333
    19)    -2.50000000E-01  2.50000000E-01 -3.33333343E-01       0.04167
    20)     0.00000000E+00 -5.00000000E-01 -3.33333343E-01       0.04167
    21)     5.00000000E-01 -5.00000000E-01 -3.33333343E-01       0.02083
    22)    -2.50000000E-01 -2.50000000E-01  5.00000000E-01       0.02083
    23)     0.00000000E+00  0.00000000E+00 -5.00000000E-01       0.01042
    24)    -2.50000000E-01  5.00000000E-01 -5.00000000E-01       0.04167
    25)     0.00000000E+00  2.50000000E-01 -5.00000000E-01       0.04167
    26)    -2.50000000E-01  2.50000000E-01 -5.00000000E-01       0.02083
    27)     0.00000000E+00 -5.00000000E-01 -5.00000000E-01       0.02083
    28)     5.00000000E-01 -5.00000000E-01 -5.00000000E-01       0.01042

 Together with  4 symmetry operations and time-reversal symmetry 
 yields    96 points in the full Brillouin Zone.


 setmesh: FFT mesh size selected  =  81x 81x 60
          total number of points  =   393660


 k       eigenvalues [eV]
  1       -119.21 -119.21 -75.49 -75.49 -75.45 -75.45 -75.44 -75.44 -13.51 -12.71
           -12.39 -12.38 -12.38 -12.30 -12.23 -12.13 -12.12 -12.12 -11.43  -9.50
            -9.49  -7.59  -1.08   3.06   3.06   3.16   4.09   5.15   5.34   6.00
             6.00   6.46   6.46   7.26   8.20  12.99  13.24  13.24  17.19  17.31
            18.96  18.96  19.73  19.75  21.83  23.67  26.29  26.55  26.55  26.87
            26.97  26.97  28.01  28.01  28.45  29.85  29.86  30.87  32.92  32.92
            34.28  34.57  34.66  34.66  36.63  36.63  37.33  37.79  38.17  39.35
            40.65  40.65  41.04  41.26  41.26  41.50  41.95  42.21  42.28  42.28
            42.35  44.37  47.19  47.38  47.38  48.32  48.32  50.27  50.46  50.55
            50.55  50.92  52.47  52.47  52.61  52.61  53.39  53.39  53.55  55.63
            56.22  57.09  57.36  58.13  58.69  58.69  58.78  59.14  59.35  59.50
            60.26  61.20  61.73  61.73  63.08  63.08  63.20  63.20  65.50  67.08
            67.63  67.99  68.19  68.44  68.44  68.65  68.65  69.14  69.25  69.48
            70.27  70.27  71.17  72.04  72.04  72.27  72.28  72.51  72.51  72.55
            73.98  73.98  74.70  74.97  75.17  76.55  76.97  76.97  77.22  77.54
            77.86  77.97  77.97  78.71  79.05  79.05  79.79  80.75  81.37  81.37
            81.76  82.58  83.47  83.89  83.99  83.99  84.26  84.26  84.33  84.99
            85.63  85.63  86.12  86.56  87.31  87.57  87.57  88.42  88.42  88.83
            89.22  89.37  89.37  90.22  90.83  91.34  92.19  92.19  92.73  92.99
            94.09  94.09  95.10  96.23  96.23  96.43  97.03  97.13  97.81  98.34

  2       -119.21 -119.21 -75.49 -75.49 -75.45 -75.45 -75.44 -75.44 -13.41 -12.83
           -12.39 -12.37 -12.37 -12.37 -12.22 -12.15 -12.12 -12.12 -11.24  -9.91
            -9.12  -7.74  -0.67   2.09   3.39   3.40   4.44   4.78   5.43   5.61
             6.01   6.04   6.50   6.96   9.52  12.59  13.51  13.65  17.77  17.80
            18.49  19.02  19.65  19.84  20.97  23.45  24.03  25.14  25.95  26.77
            27.31  27.52  27.63  28.37  29.40  30.43  31.61  31.75  32.21  33.19
            33.87  34.62  34.88  35.32  36.56  36.68  37.34  38.26  39.21  39.29
            39.49  40.14  40.22  40.80  40.92  40.96  42.53  43.11  43.13  43.48
            44.09  44.44  45.95  46.42  46.88  47.80  48.18  49.24  49.25  49.81
            50.16  51.17  51.96  52.41  53.21  53.81  53.99  54.09  55.07  55.12
            56.15  56.64  56.75  58.14  58.42  58.47  58.53  59.41  59.64  59.69
            60.22  60.46  61.44  61.75  62.87  63.21  63.98  65.14  65.83  66.46
            67.00  67.19  67.79  67.86  67.93  68.46  68.77  69.16  69.72  69.75
            69.81  70.19  70.33  71.09  71.23  71.77  71.86  72.54  73.58  73.72
            73.74  73.87  74.27  74.57  76.31  76.49  76.59  77.16  77.21  77.46
            78.63  78.70  78.95  79.17  79.65  80.14  80.35  80.87  81.16  81.29
            82.35  82.53  82.87  83.37  83.41  83.75  84.29  84.31  84.36  84.59
            84.90  85.19  86.73  87.20  87.52  87.91  87.99  88.54  88.82  89.35
            90.29  90.70  90.86  91.08  91.12  91.83  91.94  93.27  93.46  93.62
            93.89  94.03  94.11  94.88  95.16  96.10  96.11  96.99  97.00  97.50

  3       -119.21 -119.21 -75.49 -75.49 -75.45 -75.45 -75.44 -75.44 -13.14 -13.14
           -12.39 -12.39 -12.37 -12.37 -12.18 -12.18 -12.13 -12.13 -10.67 -10.67
            -8.34  -8.34   0.52   0.52   4.04   4.04   4.23   4.23   5.24   5.24
             6.04   6.04   6.62   6.62  11.38  11.38  13.97  13.97  17.89  17.89
            19.25  19.25  19.48  19.48  20.91  20.91  24.91  24.91  25.59  25.59
            27.19  27.19  28.42  28.42  29.13  29.13  33.03  33.03  33.43  33.43
            34.35  34.35  35.17  35.17  36.50  36.50  38.95  38.95  39.04  39.04
            39.17  39.17  40.56  40.56  40.97  40.97  42.13  42.13  43.71  43.71
            44.46  44.46  46.50  46.50  46.90  46.90  48.53  48.53  48.87  48.87
            50.31  50.31  51.18  51.18  54.18  54.18  54.80  54.80  54.99  54.99
            56.41  56.41  57.60  57.60  58.37  58.37  58.94  58.94  60.10  60.10
            61.33  61.33  61.85  61.85  62.59  62.59  64.47  64.47  64.80  64.80
            65.70  65.70  66.51  66.51  67.12  67.12  70.05  70.05  70.13  70.13
            71.01  71.01  71.71  71.71  71.84  71.84  73.05  73.05  73.58  73.58
            74.05  74.05  74.16  74.16  75.53  75.53  75.71  75.71  77.05  77.05
            77.66  77.66  79.61  79.61  80.00  80.00  81.62  81.62  82.71  82.71
            83.04  83.04  83.49  83.49  84.40  84.40  85.10  85.10  85.32  85.32
            86.43  86.43  86.61  86.61  86.87  86.87  87.84  87.84  87.89  87.89
            89.27  89.27  90.92  90.92  91.17  91.17  91.24  91.24  92.76  92.76
            92.93  92.93  94.53  94.53  97.58  97.58  98.67  98.67  99.00  99.00

  4       -119.21 -119.21 -75.49 -75.49 -75.45 -75.45 -75.44 -75.44 -13.36 -12.95
           -12.39 -12.38 -12.37 -12.37 -12.20 -12.15 -12.13 -12.12 -11.01  -9.56
            -9.52  -8.00  -0.20   2.12   3.12   3.59   4.58   4.65   4.90   5.61
             5.96   6.04   6.42   6.77  10.29  12.32  13.84  13.99  17.60  18.21
            18.39  19.11  19.51  20.36  20.45  23.01  24.33  24.75  24.85  25.54
            25.72  27.78  28.71  29.43  30.48  30.77  31.23  31.62  33.01  33.22
            33.99  34.10  34.85  34.96  35.84  37.27  37.73  38.31  38.75  39.36
            39.67  40.54  40.67  41.34  41.55  42.13  42.33  42.97  43.04  44.00
            44.07  44.39  45.23  46.72  46.75  46.97  47.72  48.14  49.64  49.71
            50.58  50.71  50.79  53.01  53.03  53.42  54.11  54.82  55.13  55.55
            55.89  55.99  56.32  57.38  58.03  58.95  59.19  59.73  60.09  60.15
            60.51  61.05  61.12  61.72  61.99  63.58  64.36  64.54  64.78  65.83
            66.63  66.82  67.00  67.72  68.07  68.89  69.05  69.18  69.40  69.65
            70.13  70.16  70.64  71.09  71.29  71.89  71.94  72.62  73.43  73.52
            73.57  73.67  74.92  75.23  75.93  75.99  76.36  76.48  76.90  78.18
            78.68  79.07  79.16  79.44  79.82  80.38  81.18  81.39  81.53  81.67
            82.26  82.53  82.63  82.68  83.57  83.72  83.74  84.24  84.36  84.48
            85.35  86.66  87.15  87.37  87.51  88.13  88.62  88.81  89.00  89.57
            90.08  91.05  91.23  91.64  91.82  92.51  93.00  93.17  93.46  93.51
            93.77  94.07  94.79  95.21  95.86  95.99  96.09  96.74  96.91  97.57

  5       -119.21 -119.21 -75.49 -75.49 -75.45 -75.45 -75.44 -75.44 -13.20 -13.20
           -12.38 -12.38 -12.37 -12.37 -12.18 -12.18 -12.12 -12.12 -10.36 -10.36
            -8.73  -8.73   1.00   1.00   3.85   3.85   4.08   4.08   5.22   5.22
             5.98   5.98   6.48   6.48  11.56  11.56  14.23  14.23  17.84  17.84
            19.30  19.30  19.34  19.34  21.21  21.21  24.95  24.95  25.03  25.03
            25.89  25.89  29.24  29.24  30.19  30.19  32.32  32.32  33.30  33.30
            34.21  34.21  34.46  34.46  36.66  36.66  39.25  39.25  39.25  39.25
            39.98  39.98  41.37  41.37  41.48  41.48  42.35  42.35  43.48  43.48
            44.35  44.35  46.20  46.20  47.20  47.20  47.44  47.44  48.42  48.42
            50.60  50.60  51.92  51.92  52.81  52.81  54.09  54.09  55.62  55.62
            56.92  56.92  57.63  57.63  58.15  58.15  59.14  59.14  59.85  59.85
            60.55  60.55  62.84  62.84  62.91  62.91  64.02  64.02  64.84  64.84
            65.32  65.32  66.95  66.95  67.34  67.34  68.58  68.58  69.23  69.23
            70.73  70.73  71.42  71.42  72.28  72.28  72.87  72.87  73.07  73.07
            74.02  74.02  74.87  74.87  76.53  76.53  77.65  77.65  78.04  78.04
            78.54  78.54  79.10  79.10  79.82  79.82  80.42  80.42  81.28  81.28
            82.33  82.33  82.84  82.84  83.55  83.55  85.00  85.00  85.61  85.61
            86.66  86.66  87.01  87.01  87.46  87.46  88.46  88.46  89.34  89.34
            90.69  90.69  90.95  90.95  92.25  92.25  93.33  93.33  94.35  94.35
            94.51  94.51  95.20  95.20  96.05  96.05  97.59  97.59  97.63  97.63

  6       -119.21 -119.21 -75.49 -75.49 -75.45 -75.45 -75.44 -75.44 -13.36 -12.95
           -12.39 -12.38 -12.37 -12.37 -12.20 -12.15 -12.13 -12.12 -11.01  -9.56
            -9.52  -8.00  -0.20   2.12   3.12   3.59   4.58   4.65   4.90   5.61
             5.96   6.04   6.42   6.77  10.29  12.32  13.84  13.99  17.60  18.21
            18.39  19.11  19.51  20.36  20.45  23.01  24.33  24.75  24.85  25.54
            25.72  27.78  28.71  29.43  30.48  30.77  31.23  31.62  33.01  33.22
            33.99  34.10  34.85  34.96  35.84  37.27  37.73  38.31  38.75  39.36
            39.67  40.54  40.67  41.34  41.55  42.13  42.33  42.97  43.04  44.00
            44.07  44.39  45.23  46.72  46.75  46.97  47.72  48.14  49.64  49.71
            50.58  50.71  50.79  53.01  53.03  53.42  54.11  54.82  55.13  55.55
            55.89  55.99  56.32  57.38  58.03  58.95  59.19  59.73  60.09  60.15
            60.51  61.05  61.12  61.72  61.99  63.58  64.36  64.54  64.78  65.83
            66.63  66.82  67.00  67.72  68.07  68.89  69.05  69.18  69.40  69.65
            70.13  70.16  70.64  71.09  71.29  71.89  71.94  72.62  73.43  73.52
            73.57  73.67  74.92  75.23  75.93  75.99  76.36  76.48  76.90  78.18
            78.68  79.07  79.16  79.44  79.82  80.38  81.18  81.39  81.53  81.67
            82.26  82.53  82.63  82.68  83.57  83.72  83.74  84.24  84.36  84.48
            85.35  86.66  87.15  87.37  87.51  88.13  88.62  88.81  89.00  89.57
            90.08  91.05  91.23  91.64  91.82  92.51  93.00  93.17  93.46  93.51
            93.77  94.07  94.79  95.21  95.86  95.99  96.09  96.74  96.91  97.57

  7       -119.21 -119.21 -75.49 -75.49 -75.45 -75.45 -75.44 -75.44 -13.25 -13.25
           -12.38 -12.38 -12.37 -12.37 -12.17 -12.17 -12.12 -12.12  -9.63  -9.63
            -9.53  -9.53   1.67   1.67   3.25   3.25   4.12   4.12   5.20   5.20
             5.92   5.92   6.36   6.36  11.74  11.74  14.47  14.47  17.90  17.90
            19.34  19.34  19.44  19.44  20.68  20.68  24.63  24.63  25.14  25.14
            26.52  26.52  28.76  28.76  29.60  29.60  32.08  32.08  32.83  32.83
            34.39  34.39  35.08  35.08  36.94  36.94  39.47  39.47  40.03  40.03
            40.07  40.07  41.82  41.82  41.87  41.87  42.07  42.07  44.06  44.06
            44.56  44.56  44.94  44.94  47.52  47.52  47.73  47.73  48.08  48.08
            48.79  48.79  51.58  51.58  52.63  52.63  55.99  55.99  56.43  56.43
            57.28  57.28  57.49  57.49  57.57  57.57  58.63  58.63  59.39  59.39
            60.05  60.05  61.99  61.99  63.89  63.89  63.98  63.98  64.66  64.66
            65.33  65.33  66.28  66.28  67.13  67.13  68.30  68.30  69.50  69.50
            70.35  70.35  71.56  71.56  72.67  72.67  73.02  73.02  73.39  73.39
            74.55  74.55  74.92  74.92  75.11  75.11  76.80  76.80  78.04  78.04
            78.89  78.89  79.87  79.87  80.01  80.01  81.24  81.24  81.63  81.63
            81.80  81.80  84.33  84.33  84.56  84.56  85.32  85.32  85.42  85.42
            85.96  85.96  86.46  86.46  86.76  86.76  89.20  89.20  90.21  90.21
            90.66  90.66  91.51  91.51  92.01  92.01  93.39  93.39  93.69  93.69
            95.51  95.51  96.48  96.48  96.87  96.87  97.83  97.83  98.44  98.44

  8       -119.21 -119.21 -75.49 -75.49 -75.45 -75.45 -75.44 -75.44 -13.37 -12.64
           -12.64 -12.54 -12.34 -12.33 -12.22 -12.15 -12.15 -12.14 -11.28  -9.06
            -9.06  -7.81  -1.12   2.99   3.31   3.31   3.57   4.28   5.06   5.06
             5.08   6.48   6.48   7.02   9.71  13.47  14.34  14.34  15.98  18.60
            18.84  18.84  19.31  19.70  21.52  22.20  23.92  23.92  26.74  27.74
            27.75  27.99  27.99  30.42  30.42  30.65  31.67  32.21  32.83  32.83
            33.17  33.17  33.65  34.71  37.01  37.67  37.85  37.85  38.03  38.60
            39.75  39.75  41.19  41.84  41.97  42.11  42.11  42.20  42.41  42.59
            42.59  45.27  46.50  46.50  47.38  47.38  48.64  48.98  48.98  49.48
            50.52  51.64  52.35  52.35  52.78  52.78  53.04  55.28  55.54  55.67
            55.67  57.22  57.63  57.71  58.26  58.88  59.00  59.00  59.54  59.74
            60.26  60.36  60.36  60.41  63.02  63.02  63.11  63.38  64.85  64.85
            66.38  66.38  67.12  67.17  67.17  67.47  67.73  68.76  69.20  69.49
            69.74  70.38  71.88  71.88  72.16  72.16  72.87  72.87  73.87  74.14
            75.13  75.58  75.69  75.69  75.98  76.49  76.63  76.63  77.81  78.26
            78.31  78.50  78.50  79.66  79.66  79.82  80.08  80.08  80.33  80.58
            80.67  80.94  81.39  81.39  83.44  83.72  84.08  84.08  84.37  84.66
            85.13  85.13  85.64  86.67  86.67  86.70  87.67  89.72  90.52  90.52
            90.61  91.31  92.40  92.40  92.94  93.26  93.59  93.84  93.84  95.01
            95.06  95.06  95.22  95.75  96.85  96.85  97.32  97.32  97.81  98.20

  9       -119.21 -119.21 -75.49 -75.49 -75.45 -75.45 -75.44 -75.44 -13.30 -12.82
           -12.62 -12.54 -12.33 -12.29 -12.21 -12.15 -12.15 -12.14 -11.07  -9.57
            -8.77  -7.81  -0.68   2.19   2.54   3.22   4.16   4.47   4.88   5.34
             5.63   6.20   6.45   6.89  10.43  13.14  14.53  14.61  16.37  18.09
            18.77  19.15  19.44  19.61  20.71  22.47  22.58  24.81  26.29  26.43
            27.84  28.24  28.52  29.61  30.05  30.61  30.95  32.64  33.04  33.48
            33.69  34.62  34.74  35.48  35.86  37.27  37.43  38.35  38.71  39.10
            39.35  39.64  40.19  41.00  41.08  41.50  42.89  43.19  43.48  43.89
            44.77  45.04  46.07  46.25  46.66  47.09  47.51  48.81  49.24  49.76
            50.41  50.93  51.75  51.85  52.03  53.28  53.50  54.41  55.31  55.37
            56.21  56.74  56.86  57.33  57.45  57.84  58.87  59.05  59.38  59.98
            60.34  61.18  61.83  61.90  62.07  63.07  64.33  64.59  64.85  65.57
            65.74  66.23  66.51  66.78  67.61  67.87  68.13  68.59  69.36  69.70
            69.88  69.90  70.88  71.37  71.73  72.13  72.41  72.97  73.32  74.21
            74.33  75.01  75.06  75.28  76.30  76.43  76.72  77.33  77.61  77.84
            78.03  78.23  78.50  78.91  79.58  80.10  80.38  80.43  80.60  80.75
            81.45  81.91  82.44  82.77  82.91  83.77  84.49  84.72  85.61  85.82
            86.01  86.45  87.11  87.73  88.02  88.18  88.55  89.32  89.76  89.91
            90.14  90.69  90.72  91.00  91.58  91.88  92.71  93.01  93.38  94.20
            94.71  95.18  95.27  95.77  95.79  96.66  97.23  98.04  98.43  98.88

 10       -119.21 -119.21 -75.49 -75.49 -75.45 -75.45 -75.44 -75.44 -13.09 -13.09
           -12.59 -12.59 -12.30 -12.30 -12.18 -12.18 -12.15 -12.15 -10.43 -10.43
            -8.18  -8.18   0.55   0.55   2.65   2.65   4.56   4.56   5.46   5.46
             5.81   5.81   6.51   6.51  11.96  11.96  14.93  14.93  16.92  16.92
            19.47  19.47  19.55  19.55  20.40  20.40  24.04  24.04  25.92  25.92
            28.47  28.47  28.81  28.81  29.65  29.65  31.66  31.66  33.46  33.46
            34.45  34.45  35.85  35.85  37.27  37.27  38.58  38.58  38.75  38.75
            39.52  39.52  40.56  40.56  41.23  41.23  42.79  42.79  43.75  43.75
            44.75  44.75  45.52  45.52  47.20  47.20  48.90  48.90  49.43  49.43
            50.52  50.52  50.78  50.78  52.22  52.22  53.69  53.69  55.22  55.22
            56.40  56.40  56.75  56.75  57.77  57.77  58.96  58.96  59.49  59.49
            61.19  61.19  62.30  62.30  63.62  63.62  64.45  64.45  64.98  64.98
            65.52  65.52  66.85  66.85  67.19  67.19  68.09  68.09  69.62  69.62
            69.80  69.80  71.11  71.11  71.86  71.86  73.15  73.15  73.39  73.39
            73.88  73.88  74.86  74.86  76.38  76.38  77.08  77.08  77.64  77.64
            78.33  78.33  78.93  78.93  80.21  80.21  81.07  81.07  81.70  81.70
            82.12  82.12  83.50  83.50  84.01  84.01  84.11  84.11  85.13  85.13
            86.05  86.05  87.63  87.63  88.10  88.10  88.98  88.98  89.42  89.42
            90.73  90.73  92.07  92.07  92.41  92.41  92.70  92.70  94.00  94.00
            95.02  95.02  95.33  95.33  95.85  95.85  97.33  97.33  97.62  97.62

 11       -119.21 -119.21 -75.49 -75.49 -75.45 -75.45 -75.44 -75.44 -13.25 -12.91
           -12.64 -12.57 -12.33 -12.29 -12.20 -12.16 -12.16 -12.15 -10.81  -9.36
            -9.12  -7.96  -0.26   1.53   3.09   3.40   3.80   4.26   4.76   5.46
             5.93   5.97   6.44   6.84  10.92  12.78  14.76  14.89  16.41  18.24
            18.31  19.37  19.51  19.89  20.20  22.67  23.40  23.52  25.35  26.68
            26.92  27.56  28.43  30.11  30.27  31.11  31.58  31.85  32.63  33.92
            34.25  35.20  35.28  35.39  36.16  37.29  37.69  37.75  38.29  39.17
            39.45  40.49  40.64  40.78  41.18  42.25  42.85  43.14  43.36  43.88
            44.82  45.42  45.71  46.28  46.93  47.24  47.48  48.29  48.42  49.61
            50.60  50.91  51.30  51.82  52.73  53.35  53.45  53.85  55.12  55.52
            55.66  55.79  56.03  56.60  57.52  58.38  58.54  59.04  59.69  59.97
            60.85  61.29  62.19  62.49  62.60  62.84  63.83  63.99  64.63  65.43
            65.68  66.49  66.86  67.71  67.83  68.09  68.25  68.66  68.88  69.43
            69.47  70.02  70.65  70.76  71.22  71.64  71.67  72.88  73.33  73.52
            73.99  74.29  74.89  75.21  75.44  76.46  76.60  77.41  77.71  78.28
            78.52  79.07  79.09  79.73  80.15  80.17  80.81  80.82  81.52  81.63
            82.45  82.64  83.32  83.82  83.96  84.23  84.96  85.01  85.29  85.49
            86.02  86.41  87.01  87.12  87.72  88.17  88.72  88.77  89.67  90.15
            90.43  90.48  91.07  91.22  92.35  92.67  92.87  93.09  93.67  93.74
            94.39  94.65  94.93  95.66  96.26  96.34  97.21  97.45  98.43  98.65

 12       -119.21 -119.21 -75.49 -75.49 -75.45 -75.45 -75.44 -75.44 -13.10 -13.10
           -12.62 -12.62 -12.31 -12.31 -12.17 -12.17 -12.15 -12.15 -10.12 -10.12
            -8.54  -8.54   0.71   0.71   2.98   2.98   4.28   4.28   5.10   5.10
             5.95   5.95   6.55   6.55  11.95  11.95  15.08  15.08  17.09  17.09
            18.95  18.95  19.53  19.53  21.44  21.44  23.66  23.66  25.36  25.36
            26.95  26.95  29.20  29.20  30.87  30.87  31.71  31.71  32.83  32.83
            34.96  34.96  35.83  35.83  36.75  36.75  38.59  38.59  39.46  39.46
            40.17  40.17  40.84  40.84  41.43  41.43  42.62  42.62  43.38  43.38
            44.98  44.98  46.16  46.16  46.72  46.72  48.21  48.21  49.06  49.06
            50.44  50.44  51.43  51.43  52.39  52.39  53.61  53.61  54.72  54.72
            55.76  55.76  57.25  57.25  58.09  58.09  58.93  58.93  59.23  59.23
            61.41  61.41  62.35  62.35  63.36  63.36  63.88  63.88  65.16  65.16
            65.63  65.63  66.32  66.32  67.03  67.03  67.89  67.89  68.81  68.81
            69.48  69.48  70.53  70.53  71.99  71.99  72.77  72.77  73.70  73.70
            74.08  74.08  75.64  75.64  76.36  76.36  76.89  76.89  78.03  78.03
            78.86  78.86  79.31  79.31  80.92  80.92  81.69  81.69  82.44  82.44
            82.96  82.96  83.41  83.41  84.19  84.19  85.08  85.08  85.78  85.78
            85.96  85.96  87.05  87.05  87.90  87.90  88.34  88.34  89.33  89.33
            90.75  90.75  92.00  92.00  92.93  92.93  93.41  93.41  94.08  94.08
            94.92  94.92  95.73  95.73  96.15  96.15  96.77  96.77  97.84  97.84

 13       -119.21 -119.21 -75.49 -75.49 -75.45 -75.45 -75.44 -75.44 -13.25 -12.91
           -12.64 -12.57 -12.33 -12.29 -12.20 -12.16 -12.16 -12.15 -10.81  -9.36
            -9.12  -7.96  -0.26   1.53   3.09   3.40   3.80   4.26   4.76   5.46
             5.93   5.97   6.44   6.84  10.92  12.78  14.76  14.89  16.41  18.24
            18.31  19.37  19.51  19.89  20.20  22.67  23.40  23.52  25.35  26.68
            26.92  27.56  28.43  30.11  30.27  31.11  31.58  31.85  32.63  33.92
            34.25  35.20  35.28  35.39  36.16  37.29  37.69  37.75  38.29  39.17
            39.45  40.49  40.64  40.78  41.18  42.25  42.85  43.14  43.36  43.88
            44.82  45.42  45.71  46.28  46.93  47.24  47.48  48.29  48.42  49.61
            50.60  50.91  51.30  51.82  52.73  53.35  53.45  53.85  55.12  55.52
            55.66  55.79  56.03  56.60  57.52  58.38  58.54  59.04  59.69  59.97
            60.85  61.29  62.19  62.49  62.60  62.84  63.83  63.99  64.63  65.43
            65.68  66.49  66.86  67.71  67.83  68.09  68.25  68.66  68.88  69.43
            69.47  70.02  70.65  70.76  71.22  71.64  71.67  72.88  73.33  73.52
            73.99  74.29  74.89  75.21  75.44  76.46  76.60  77.41  77.71  78.28
            78.52  79.07  79.09  79.73  80.15  80.17  80.81  80.82  81.52  81.63
            82.45  82.64  83.32  83.82  83.96  84.23  84.96  85.01  85.29  85.49
            86.02  86.41  87.01  87.12  87.72  88.17  88.72  88.77  89.67  90.15
            90.43  90.48  91.07  91.22  92.35  92.67  92.87  93.09  93.67  93.74
            94.39  94.65  94.93  95.66  96.26  96.34  97.21  97.45  98.43  98.65

 14       -119.21 -119.21 -75.49 -75.49 -75.45 -75.45 -75.44 -75.44 -13.12 -13.12
           -12.65 -12.65 -12.32 -12.32 -12.17 -12.17 -12.16 -12.16  -9.51  -9.51
            -9.19  -9.19   0.87   0.87   3.49   3.49   4.19   4.19   4.39   4.39
             6.28   6.28   6.38   6.38  11.95  11.95  15.21  15.21  17.64  17.64
            18.20  18.20  19.62  19.62  22.33  22.33  23.71  23.71  23.92  23.92
            27.35  27.35  29.00  29.00  30.37  30.37  31.25  31.25  33.67  33.67
            34.86  34.86  35.63  35.63  36.96  36.96  39.50  39.50  39.76  39.76
            40.59  40.59  41.09  41.09  41.46  41.46  42.86  42.86  43.89  43.89
            44.15  44.15  45.11  45.11  46.69  46.69  48.84  48.84  48.87  48.87
            49.67  49.67  50.61  50.61  52.47  52.47  54.63  54.63  55.47  55.47
            56.23  56.23  56.78  56.78  57.28  57.28  58.45  58.45  61.20  61.20
            61.67  61.67  61.96  61.96  62.43  62.43  63.90  63.90  64.40  64.40
            64.73  64.73  65.73  65.73  66.14  66.14  68.25  68.25  68.71  68.71
            69.30  69.30  70.76  70.76  70.88  70.88  71.95  71.95  74.51  74.51
            74.98  74.98  76.36  76.36  76.57  76.57  77.64  77.64  78.73  78.73
            80.07  80.07  80.10  80.10  80.19  80.19  81.52  81.52  81.88  81.88
            83.86  83.86  84.31  84.31  84.61  84.61  85.48  85.48  86.13  86.13
            86.27  86.27  87.01  87.01  87.30  87.30  88.78  88.78  88.90  88.90
            91.42  91.42  91.94  91.94  92.53  92.53  92.76  92.76  94.15  94.15
            94.31  94.31  95.40  95.40  95.63  95.63  97.04  97.04  98.08  98.08

 15       -119.21 -119.21 -75.48 -75.48 -75.45 -75.45 -75.44 -75.44 -13.06 -13.04
           -13.04 -12.50 -12.22 -12.21 -12.21 -12.19 -12.19 -12.14 -10.69  -8.51
            -8.29  -8.29  -1.01   1.41   2.96   3.43   3.43   4.16   4.16   4.29
             4.80   6.25   6.25   6.39  11.68  13.73  15.76  16.33  16.33  18.20
            18.43  18.43  19.67  19.71  20.68  21.41  22.29  22.29  25.96  27.98
            27.98  29.18  29.23  31.37  31.41  31.41  31.67  32.23  33.16  33.16
            34.49  34.49  35.72  35.90  37.07  37.09  37.09  37.12  37.76  38.35
            39.76  39.76  39.92  41.55  41.55  42.05  42.77  42.77  43.03  43.53
            44.48  45.40  45.40  45.90  47.45  47.45  48.06  48.06  48.48  48.53
            50.26  51.38  51.38  51.76  52.70  52.71  53.22  53.22  54.93  55.60
            56.96  57.09  57.09  57.51  58.12  58.52  58.52  58.52  59.49  60.60
            60.81  61.15  61.15  61.60  62.99  62.99  63.66  63.73  63.84  63.92
            63.92  64.94  64.94  64.97  65.16  67.21  67.44  67.90  67.90  68.59
            70.18  70.75  70.75  70.99  71.07  71.73  72.09  72.17  72.17  72.89
            73.95  73.95  75.02  75.61  75.61  76.39  76.96  77.12  77.12  77.76
            78.29  78.29  78.67  78.67  79.18  79.24  79.24  80.38  81.68  81.76
            82.52  82.52  83.52  84.45  85.13  85.13  85.13  86.16  87.54  87.95
            87.95  88.02  88.14  88.50  88.96  88.97  88.97  90.54  90.67  91.75
            91.75  91.93  92.59  92.94  92.94  93.25  93.25  93.41  94.49  94.49
            94.51  94.89  96.05  96.05  97.06  97.39  97.67  97.67  98.41  99.94

 16       -119.21 -119.21 -75.48 -75.48 -75.45 -75.45 -75.44 -75.44 -13.24 -13.17
           -12.76 -12.41 -12.24 -12.23 -12.19 -12.19 -12.18 -12.15 -10.58  -9.25
            -8.13  -7.89  -0.62   1.16   2.10   2.60   3.45   3.51   5.03   5.32
             5.32   6.17   6.35   6.50  12.00  13.60  15.60  16.03  16.47  17.50
            18.66  19.03  19.56  19.67  20.22  20.99  21.81  23.81  25.60  27.39
            28.41  29.02  29.44  29.82  30.74  31.16  32.52  32.66  32.91  33.44
            34.11  34.82  35.20  35.69  36.75  37.51  37.52  38.27  38.51  38.77
            39.45  39.65  40.43  41.02  41.36  42.56  43.05  43.37  43.47  44.37
            44.80  45.24  46.21  46.57  46.97  47.04  47.69  48.00  49.34  49.35
            50.32  50.58  50.61  51.08  51.81  52.11  53.19  53.86  54.15  54.85
            55.12  56.00  56.09  56.67  56.88  57.99  58.47  59.43  59.74  60.06
            60.74  61.26  61.46  61.77  62.05  62.87  63.37  63.67  63.72  64.42
            64.99  65.04  65.36  65.55  67.16  67.54  68.10  68.63  68.89  69.07
            69.62  69.86  70.91  71.14  71.37  71.98  72.11  72.37  73.40  73.84
            74.44  74.54  75.05  75.15  75.48  76.13  76.35  77.05  77.20  77.30
            78.09  78.22  78.26  78.34  79.03  80.17  81.12  81.22  81.71  81.86
            82.12  82.37  82.86  83.66  84.59  85.05  85.49  86.02  86.19  86.45
            86.62  87.61  88.10  88.53  89.16  89.36  89.93  90.05  90.59  90.70
            90.91  91.30  91.81  92.24  93.57  94.20  94.21  94.55  95.49  95.62
            95.72  96.36  96.46  96.98  97.41  97.50  97.63  97.87  99.15  99.64

 17       -119.21 -119.21 -75.48 -75.48 -75.45 -75.45 -75.44 -75.44 -13.28 -13.28
           -12.49 -12.49 -12.24 -12.24 -12.18 -12.18 -12.16 -12.16 -10.08 -10.08
            -7.86  -7.86   0.37   0.37   1.73   1.73   3.42   3.42   5.58   5.58
             6.11   6.11   6.40   6.40  12.90  12.90  15.52  15.52  16.89  16.89
            19.29  19.29  19.46  19.46  20.01  20.01  23.04  23.04  27.00  27.00
            28.52  28.52  29.32  29.32  30.12  30.12  32.09  32.09  33.39  33.39
            35.06  35.06  35.41  35.41  37.39  37.39  38.52  38.52  38.76  38.76
            39.70  39.70  41.11  41.11  42.41  42.41  43.48  43.48  44.09  44.09
            44.20  44.20  46.80  46.80  47.33  47.33  48.87  48.87  49.25  49.25
            49.85  49.85  50.18  50.18  51.73  51.73  52.71  52.71  54.33  54.33
            55.13  55.13  56.02  56.02  56.97  56.97  58.21  58.21  59.01  59.01
            60.25  60.25  61.18  61.18  63.04  63.04  63.63  63.63  64.36  64.36
            65.94  65.94  66.99  66.99  68.45  68.45  68.66  68.66  69.01  69.01
            70.14  70.14  70.28  70.28  72.00  72.00  72.48  72.48  72.94  72.94
            74.69  74.69  75.21  75.21  76.14  76.14  76.40  76.40  77.58  77.58
            78.11  78.11  78.95  78.95  79.43  79.43  81.03  81.03  81.28  81.28
            82.73  82.73  83.51  83.51  84.85  84.85  85.31  85.31  86.37  86.37
            86.80  86.80  87.56  87.56  89.33  89.33  90.03  90.03  90.78  90.78
            91.74  91.74  92.22  92.22  92.96  92.96  93.95  93.95  94.83  94.83
            95.61  95.61  96.77  96.77  97.51  97.51  98.91  98.91  99.37  99.37

 18       -119.21 -119.21 -75.48 -75.48 -75.45 -75.45 -75.44 -75.44 -13.29 -13.05
           -12.87 -12.42 -12.24 -12.22 -12.20 -12.18 -12.17 -12.15 -10.39  -9.26
            -8.34  -7.83  -0.50   0.59   2.04   3.05   3.07   4.08   4.36   5.56
             5.85   6.29   6.32   6.53  12.01  13.10  15.39  16.44  16.49  17.84
            17.99  19.24  19.58  19.74  20.31  21.42  21.66  24.66  25.24  26.23
            27.25  28.33  29.14  29.78  30.97  31.53  32.87  33.07  33.30  33.62
            33.88  34.76  35.57  35.94  36.03  37.62  38.51  38.57  38.95  39.18
            39.56  39.74  40.19  40.52  41.45  42.27  42.82  43.76  44.09  44.56
            44.58  45.04  46.48  47.07  47.24  47.47  48.12  48.41  48.67  49.67
            49.67  50.13  50.80  50.91  52.41  52.58  52.59  53.30  54.46  54.72
            54.98  55.73  55.88  55.92  56.10  57.17  57.64  58.61  59.42  59.74
            60.75  60.91  61.29  61.39  61.81  62.39  62.82  63.68  64.04  64.64
            65.09  65.59  66.04  66.28  66.43  67.57  67.84  68.74  68.80  69.58
            69.90  69.91  71.01  71.06  71.52  72.01  72.56  73.25  73.49  73.64
            74.59  74.75  75.16  75.26  76.21  76.21  76.58  76.99  77.25  77.86
            78.00  78.34  78.66  79.54  79.64  80.51  80.66  81.45  81.86  81.97
            82.00  82.56  83.03  83.37  84.52  84.79  85.77  85.98  86.24  86.65
            87.46  87.72  88.22  89.04  89.31  89.63  89.83  90.52  90.67  91.08
            91.80  92.08  92.16  92.71  92.90  93.34  93.44  94.26  94.58  94.91
            95.05  95.83  96.26  96.51  97.13  97.66  97.95  98.20  98.50  98.99

 19       -119.21 -119.21 -75.48 -75.48 -75.45 -75.45 -75.44 -75.44 -13.20 -13.20
           -12.64 -12.64 -12.23 -12.23 -12.18 -12.18 -12.16 -12.16  -9.81  -9.81
            -8.08  -8.08  -0.13  -0.13   2.62   2.62   3.22   3.22   5.62   5.62
             6.03   6.03   6.44   6.44  12.32  12.32  15.91  15.91  17.02  17.02
            18.63  18.63  19.78  19.78  20.98  20.98  23.19  23.19  25.70  25.70
            27.25  27.25  29.11  29.11  31.20  31.20  32.47  32.47  33.81  33.81
            34.74  34.74  36.26  36.26  36.78  36.78  38.47  38.47  39.45  39.45
            39.62  39.62  41.22  41.22  42.47  42.47  42.81  42.81  43.83  43.83
            45.00  45.00  46.42  46.42  48.01  48.01  48.17  48.17  48.85  48.85
            50.05  50.05  51.21  51.21  52.20  52.20  52.88  52.88  54.17  54.17
            55.19  55.19  55.45  55.45  57.49  57.49  57.99  57.99  58.71  58.71
            59.61  59.61  60.71  60.71  62.23  62.23  62.90  62.90  64.48  64.48
            65.20  65.20  66.49  66.49  67.57  67.57  68.28  68.28  69.00  69.00
            69.98  69.98  70.94  70.94  72.26  72.26  72.75  72.75  73.64  73.64
            74.71  74.71  75.71  75.71  76.23  76.23  77.19  77.19  78.22  78.22
            78.90  78.90  79.35  79.35  80.56  80.56  80.98  80.98  81.69  81.69
            82.84  82.84  84.05  84.05  84.56  84.56  85.79  85.79  87.03  87.03
            88.00  88.00  88.74  88.74  89.26  89.26  89.72  89.72  90.23  90.23
            91.21  91.21  93.02  93.02  93.25  93.25  93.73  93.73  94.67  94.67
            95.23  95.23  95.77  95.77  96.74  96.74  97.42  97.42  98.34  98.34

 20       -119.21 -119.21 -75.48 -75.48 -75.45 -75.45 -75.44 -75.44 -13.29 -13.05
           -12.87 -12.42 -12.24 -12.22 -12.20 -12.18 -12.17 -12.15 -10.39  -9.26
            -8.34  -7.83  -0.50   0.59   2.04   3.05   3.07   4.08   4.36   5.56
             5.85   6.29   6.32   6.53  12.01  13.10  15.39  16.44  16.49  17.84
            17.99  19.24  19.58  19.74  20.31  21.42  21.66  24.66  25.24  26.23
            27.25  28.33  29.14  29.78  30.97  31.53  32.87  33.07  33.30  33.62
            33.88  34.76  35.57  35.94  36.03  37.62  38.51  38.57  38.95  39.18
            39.56  39.74  40.19  40.52  41.45  42.27  42.82  43.76  44.09  44.56
            44.58  45.04  46.48  47.07  47.24  47.47  48.12  48.41  48.67  49.67
            49.67  50.13  50.80  50.91  52.41  52.58  52.59  53.30  54.46  54.72
            54.98  55.73  55.88  55.92  56.10  57.17  57.64  58.61  59.42  59.74
            60.75  60.91  61.29  61.39  61.81  62.39  62.82  63.68  64.04  64.64
            65.09  65.59  66.04  66.28  66.43  67.57  67.84  68.74  68.80  69.58
            69.90  69.91  71.01  71.06  71.52  72.01  72.56  73.25  73.49  73.64
            74.59  74.75  75.16  75.26  76.21  76.21  76.58  76.99  77.25  77.86
            78.00  78.34  78.66  79.54  79.64  80.51  80.66  81.45  81.86  81.97
            82.00  82.56  83.03  83.37  84.52  84.79  85.77  85.98  86.24  86.65
            87.46  87.72  88.22  89.04  89.31  89.63  89.83  90.52  90.67  91.08
            91.80  92.08  92.16  92.71  92.90  93.34  93.44  94.26  94.58  94.91
            95.05  95.83  96.26  96.51  97.13  97.66  97.95  98.20  98.50  98.99

 21       -119.21 -119.21 -75.48 -75.48 -75.45 -75.45 -75.44 -75.44 -13.06 -13.06
           -12.86 -12.86 -12.21 -12.21 -12.20 -12.20 -12.16 -12.16  -9.45  -9.45
            -8.39  -8.39  -0.42  -0.42   2.72   2.72   4.20   4.20   4.70   4.70
             6.37   6.37   6.41   6.41  11.89  11.89  16.05  16.05  17.45  17.45
            17.95  17.95  20.12  20.12  22.77  22.77  22.89  22.89  24.00  24.00
            26.41  26.41  29.34  29.34  31.49  31.49  32.86  32.86  33.27  33.27
            35.26  35.26  35.71  35.71  37.13  37.13  38.83  38.83  39.77  39.77
            40.94  40.94  41.08  41.08  42.48  42.48  42.61  42.61  43.51  43.51
            44.86  44.86  46.31  46.31  46.33  46.33  48.18  48.18  49.41  49.41
            50.53  50.53  50.96  50.96  53.15  53.15  54.46  54.46  54.85  54.85
            55.00  55.00  55.17  55.17  56.28  56.28  57.01  57.01  58.79  58.79
            59.80  59.80  60.56  60.56  61.02  61.02  63.82  63.82  64.23  64.23
            64.51  64.51  64.66  64.66  66.73  66.73  68.75  68.75  68.95  68.95
            69.35  69.35  70.42  70.42  71.08  71.08  73.65  73.65  74.57  74.57
            75.79  75.79  76.02  76.02  77.43  77.43  77.54  77.54  79.22  79.22
            79.58  79.58  79.69  79.69  80.79  80.79  82.49  82.49  83.14  83.14
            83.97  83.97  84.43  84.43  84.76  84.76  85.50  85.50  85.66  85.66
            88.51  88.51  88.93  88.93  88.93  88.93  89.97  89.97  90.04  90.04
            91.79  91.79  91.95  91.95  92.57  92.57  92.84  92.84  94.37  94.37
            94.64  94.64  95.86  95.86  95.95  95.95  97.39  97.39  97.72  97.72

 22       -119.21 -119.21 -75.48 -75.48 -75.46 -75.46 -75.44 -75.44 -13.21 -13.21
           -12.73 -12.73 -12.24 -12.24 -12.16 -12.16 -12.12 -12.12  -9.62  -9.62
            -7.92  -7.92  -0.21  -0.21   2.89   2.89   3.45   3.45   4.53   4.53
             5.56   5.56   5.99   5.99  13.01  13.01  16.78  16.78  17.60  17.60
            17.86  17.86  19.90  19.90  20.78  20.78  21.81  21.81  27.61  27.61
            28.04  28.04  30.66  30.66  30.80  30.80  31.83  31.83  33.37  33.37
            35.67  35.67  36.21  36.21  36.29  36.29  37.85  37.85  40.11  40.11
            40.51  40.51  40.62  40.62  41.05  41.05  41.86  41.86  43.19  43.19
            44.31  44.31  46.22  46.22  46.29  46.29  47.62  47.62  48.73  48.73
            50.41  50.41  51.49  51.49  53.00  53.00  53.86  53.86  55.13  55.13
            55.64  55.64  57.14  57.14  57.46  57.46  59.04  59.04  59.41  59.41
            62.09  62.09  62.27  62.27  63.31  63.31  63.66  63.66  64.10  64.10
            64.49  64.49  65.35  65.35  66.72  66.72  66.83  66.83  68.05  68.05
            68.24  68.24  68.58  68.58  70.34  70.34  71.19  71.19  71.73  71.73
            73.00  73.00  74.57  74.57  75.45  75.45  76.84  76.84  77.72  77.72
            78.19  78.19  78.39  78.39  80.16  80.16  81.85  81.85  82.44  82.44
            83.94  83.94  85.17  85.17  88.14  88.14  88.25  88.25  88.76  88.76
            89.10  89.10  89.51  89.51  90.84  90.84  91.18  91.18  91.51  91.51
            91.51  91.51  92.68  92.68  92.89  92.89  93.17  93.17  93.62  93.62
            94.29  94.29  94.71  94.71  95.53  95.53  98.59  98.59  98.90  98.90

 23       -119.21 -119.21 -75.48 -75.48 -75.46 -75.46 -75.44 -75.44 -13.33 -13.33
           -12.54 -12.54 -12.24 -12.24 -12.16 -12.16 -12.11 -12.11  -9.78  -9.78
            -7.81  -7.81  -0.08  -0.08   2.23   2.23   3.01   3.01   5.40   5.40
             5.81   5.81   6.12   6.12  13.12  13.12  15.79  15.79  17.73  17.73
            18.56  18.56  19.89  19.89  20.06  20.06  22.32  22.32  27.13  27.13
            28.84  28.84  29.91  29.91  30.78  30.78  32.36  32.36  32.91  32.91
            34.40  34.40  35.87  35.87  37.34  37.34  38.38  38.38  39.04  39.04
            40.18  40.18  41.16  41.16  42.85  42.85  43.21  43.21  43.84  43.84
            44.35  44.35  45.86  45.86  46.63  46.63  47.33  47.33  49.12  49.12
            49.71  49.71  51.54  51.54  52.10  52.10  53.03  53.03  54.56  54.56
            55.48  55.48  56.37  56.37  57.44  57.44  58.50  58.50  59.03  59.03
            60.99  60.99  61.77  61.77  62.66  62.66  63.05  63.05  63.68  63.68
            64.63  64.63  66.26  66.26  66.80  66.80  67.62  67.62  68.17  68.17
            69.08  69.08  70.65  70.65  71.06  71.06  72.24  72.24  73.18  73.18
            74.50  74.50  75.46  75.46  75.91  75.91  76.56  76.56  77.24  77.24
            78.27  78.27  78.58  78.58  79.24  79.24  81.45  81.45  81.99  81.99
            83.11  83.11  84.30  84.30  84.82  84.82  86.19  86.19  87.04  87.04
            88.12  88.12  89.49  89.49  89.95  89.95  90.94  90.94  91.80  91.80
            92.35  92.35  92.50  92.50  93.32  93.32  94.91  94.91  95.42  95.42
            95.87  95.87  97.40  97.40  97.60  97.60  98.13  98.13  99.82  99.82

 24       -119.21 -119.21 -75.48 -75.48 -75.46 -75.46 -75.44 -75.44 -13.42 -13.42
           -12.40 -12.40 -12.24 -12.24 -12.15 -12.15 -12.10 -12.10  -9.93  -9.93
            -7.71  -7.71   0.13   0.13   1.54   1.54   2.92   2.92   5.49   5.49
             6.14   6.14   6.55   6.55  13.29  13.29  15.02  15.02  17.87  17.87
            19.14  19.14  19.28  19.28  19.93  19.93  22.66  22.66  27.55  27.55
            29.13  29.13  29.26  29.26  30.56  30.56  30.68  30.68  33.92  33.92
            34.62  34.62  36.39  36.39  36.97  36.97  38.46  38.46  38.81  38.81
            39.85  39.85  41.90  41.90  42.99  42.99  44.06  44.06  45.02  45.02
            45.49  45.49  46.14  46.14  46.33  46.33  46.50  46.50  49.56  49.56
            50.62  50.62  50.77  50.77  50.83  50.83  52.66  52.66  53.10  53.10
            55.05  55.05  55.95  55.95  57.01  57.01  58.54  58.54  58.68  58.68
            59.79  59.79  60.44  60.44  62.58  62.58  62.66  62.66  64.26  64.26
            64.52  64.52  66.75  66.75  68.10  68.10  69.16  69.16  69.57  69.57
            69.62  69.62  70.35  70.35  71.32  71.32  73.50  73.50  74.59  74.59
            74.86  74.86  75.01  75.01  75.58  75.58  76.54  76.54  77.52  77.52
            77.67  77.67  79.58  79.58  80.68  80.68  80.76  80.76  81.97  81.97
            82.47  82.47  82.97  82.97  84.07  84.07  84.65  84.65  85.79  85.79
            86.97  86.97  88.58  88.58  89.38  89.38  90.66  90.66  90.74  90.74
            92.70  92.70  93.07  93.07  94.50  94.50  95.56  95.56  95.58  95.58
            97.14  97.14  97.21  97.21  97.89  97.89  99.54  99.54  99.70  99.70

 25       -119.21 -119.21 -75.48 -75.48 -75.46 -75.46 -75.44 -75.44 -13.42 -13.22
           -12.74 -12.39 -12.25 -12.24 -12.16 -12.15 -12.11 -12.11  -9.93  -9.52
            -7.97  -7.71  -0.65   0.07   1.89   2.43   2.45   4.33   4.56   5.96
             5.97   5.99   6.21   6.24  12.50  13.01  15.00  16.90  17.31  17.88
            18.04  19.06  19.68  20.33  20.34  20.49  21.22  23.98  26.01  26.30
            27.31  29.13  29.79  29.81  31.00  31.34  32.04  32.69  33.82  33.93
            33.98  34.15  34.48  35.78  37.74  38.11  38.53  38.72  38.87  39.85
            40.05  40.06  40.55  40.65  42.59  42.65  43.12  44.05  44.12  44.44
            45.39  45.78  45.93  46.32  46.32  47.23  47.64  47.69  48.20  48.54
            49.07  50.33  51.20  51.54  51.83  52.29  53.35  53.67  54.29  54.92
            55.05  55.36  55.38  56.32  56.46  56.57  57.57  57.58  58.87  58.97
            59.77  59.97  60.48  61.05  61.82  62.53  62.56  62.92  63.61  64.12
            64.47  65.51  65.66  65.96  66.38  66.49  68.07  68.56  68.79  69.60
            69.79  70.36  70.76  71.21  71.48  72.90  72.97  73.15  73.71  73.90
            73.90  74.36  75.08  75.48  76.01  76.46  76.89  77.18  77.39  77.92
            78.15  78.15  78.64  78.67  78.95  80.30  80.58  81.39  81.45  82.37
            84.09  84.12  84.36  84.84  85.03  85.45  85.67  85.88  86.10  86.55
            87.30  87.60  89.32  89.50  89.77  89.94  90.06  90.67  90.89  91.43
            91.81  91.96  92.68  92.69  93.04  94.20  94.61  94.66  95.72  95.95
            96.45  96.55  96.69  97.29  97.32  97.49  98.60  98.64  98.90  99.16

 26       -119.21 -119.21 -75.48 -75.48 -75.46 -75.46 -75.44 -75.44 -13.34 -13.34
           -12.56 -12.56 -12.25 -12.25 -12.15 -12.15 -12.11 -12.11  -9.69  -9.69
            -7.84  -7.84  -0.58  -0.58   2.19   2.19   3.16   3.16   5.73   5.73
             6.22   6.22   6.27   6.27  12.31  12.31  15.69  15.69  17.83  17.83
            18.51  18.51  19.95  19.95  20.67  20.67  22.92  22.92  26.19  26.19
            27.01  27.01  29.68  29.68  31.30  31.30  32.10  32.10  33.57  33.57
            35.00  35.00  36.22  36.22  37.29  37.29  38.22  38.22  39.13  39.13
            39.83  39.83  41.96  41.96  42.33  42.33  44.01  44.01  44.54  44.54
            45.59  45.59  46.34  46.34  47.14  47.14  47.37  47.37  49.40  49.40
            49.98  49.98  50.44  50.44  52.62  52.62  53.07  53.07  54.15  54.15
            54.32  54.32  55.96  55.96  56.54  56.54  57.10  57.10  57.68  57.68
            58.66  58.66  60.96  60.96  61.83  61.83  62.91  62.91  63.55  63.55
            64.06  64.06  65.99  65.99  68.10  68.10  68.65  68.65  69.10  69.10
            70.01  70.01  71.42  71.42  72.55  72.55  73.08  73.08  73.96  73.96
            74.26  74.26  75.50  75.50  76.34  76.34  77.23  77.23  78.28  78.28
            79.09  79.09  79.81  79.81  80.32  80.32  81.61  81.61  81.91  81.91
            82.99  82.99  84.35  84.35  85.85  85.85  85.95  85.95  86.62  86.62
            87.76  87.76  88.64  88.64  89.00  89.00  89.76  89.76  91.14  91.14
            91.58  91.58  92.70  92.70  93.54  93.54  94.13  94.13  94.62  94.62
            95.51  95.51  95.89  95.89  97.10  97.10  97.58  97.58  99.22  99.22

 27       -119.21 -119.21 -75.48 -75.48 -75.46 -75.46 -75.44 -75.44 -13.42 -13.22
           -12.74 -12.39 -12.25 -12.24 -12.16 -12.15 -12.11 -12.11  -9.93  -9.52
            -7.97  -7.71  -0.65   0.07   1.89   2.43   2.45   4.33   4.56   5.96
             5.97   5.99   6.21   6.24  12.50  13.01  15.00  16.90  17.31  17.88
            18.04  19.06  19.68  20.33  20.34  20.49  21.22  23.98  26.01  26.30
            27.31  29.13  29.79  29.81  31.00  31.34  32.04  32.69  33.82  33.93
            33.98  34.15  34.48  35.78  37.74  38.11  38.53  38.72  38.87  39.85
            40.05  40.06  40.55  40.65  42.59  42.65  43.12  44.05  44.12  44.44
            45.39  45.78  45.93  46.32  46.32  47.23  47.64  47.69  48.20  48.54
            49.07  50.33  51.20  51.54  51.83  52.29  53.35  53.67  54.29  54.92
            55.05  55.36  55.38  56.32  56.46  56.57  57.57  57.58  58.87  58.97
            59.77  59.97  60.48  61.05  61.82  62.53  62.56  62.92  63.61  64.12
            64.47  65.51  65.66  65.96  66.38  66.49  68.07  68.56  68.79  69.60
            69.79  70.36  70.76  71.21  71.48  72.90  72.97  73.15  73.71  73.90
            73.90  74.36  75.08  75.48  76.01  76.46  76.89  77.18  77.39  77.92
            78.15  78.15  78.64  78.67  78.95  80.30  80.58  81.39  81.45  82.37
            84.09  84.12  84.36  84.84  85.03  85.45  85.67  85.88  86.10  86.55
            87.30  87.60  89.32  89.50  89.77  89.94  90.06  90.67  90.89  91.43
            91.81  91.96  92.68  92.69  93.04  94.20  94.61  94.66  95.72  95.95
            96.45  96.55  96.69  97.29  97.32  97.49  98.60  98.64  98.90  99.16

 28       -119.21 -119.21 -75.48 -75.48 -75.46 -75.46 -75.44 -75.44 -13.23 -13.23
           -12.75 -12.75 -12.24 -12.24 -12.15 -12.15 -12.11 -12.11  -9.41  -9.41
            -8.01  -8.01  -0.99  -0.99   2.11   2.11   4.61   4.61   4.81   4.81
             6.27   6.27   6.42   6.42  11.70  11.70  15.88  15.88  17.90  17.90
            18.17  18.17  20.27  20.27  22.47  22.47  22.59  22.59  24.72  24.72
            26.06  26.06  29.29  29.29  31.93  31.93  33.40  33.40  33.44  33.44
            34.84  34.84  34.93  34.93  38.51  38.51  39.00  39.00  39.02  39.02
            40.92  40.92  41.12  41.12  41.53  41.53  43.40  43.40  43.76  43.76
            46.92  46.92  47.18  47.18  47.21  47.21  47.44  47.44  48.34  48.34
            50.27  50.27  51.69  51.69  53.44  53.44  53.67  53.67  54.13  54.13
            54.58  54.58  54.97  54.97  55.67  55.67  56.37  56.37  56.72  56.72
            58.85  58.85  60.37  60.37  61.82  61.82  62.13  62.13  63.16  63.16
            63.28  63.28  67.15  67.15  67.40  67.40  67.82  67.82  69.87  69.87
            70.35  70.35  70.51  70.51  70.82  70.82  73.84  73.84  73.94  73.94
            75.13  75.13  75.19  75.19  76.86  76.86  77.29  77.29  78.64  78.64
            79.29  79.29  82.51  82.51  82.93  82.93  83.51  83.51  83.98  83.98
            84.52  84.52  84.75  84.75  85.93  85.93  86.38  86.38  86.99  86.99
            88.04  88.04  88.80  88.80  88.99  88.99  89.33  89.33  89.42  89.42
            90.44  90.44  90.75  90.75  91.46  91.46  91.68  91.68  92.59  92.59
            95.47  95.47  95.61  95.61  96.30  96.30  97.56  97.56  98.36  98.36


 test on the normalization of the wavefunctions
 min sum_G |a(n,k,G)| =  0.999889
 max sum_G |a(n,k,G)| =  0.999998
 test on the orthogonalization of the wavefunctions
 min sum_G a(n,k,G)* a(n",k,G) =  0.000000
 max sum_G a(n,k,G)* a(n",k,G) =  0.000001

 rdkss : COMMENT -
  Note that the test on the orthogonalization is not complete
  since bands are spread among different processors

 Number of electrons calculated from density =   68.0000; Expected =   68.0000
 average of density, n =  0.141391
 r_s =    1.1908
 omega_plasma =   36.2716 [eV]


 rdqps: reading QP wavefunctions of the previous step 
        looking for file inp_gw_DS4_QPS
 Number of iteration(s) already performed:    3

 Number of electrons calculated from density =   68.0000; Expected =   68.0000
 average of density, n =  0.141391
 r_s =    1.1908
 omega_plasma =   36.2716 [eV]


--------------------------------------------------------------------------------

 QP results after the unitary transformation in the KS subspace: 

  Number of electrons    =   68.0000

  QP Band energy    [Ha] = -6.19158885389241E+01
  QP Hartree energy [Ha] =  1.57869493705554E+02

--------------------------------------------------------------------------------

 === KS Band Gaps ===
  >>>> For spin  1
   Minimum optical gap =   0.9427 [eV], located at k-point      :   0.0000  0.0000  0.0000
   Fundamental gap     =   0.9427 [eV], Top of valence bands at :   0.0000  0.0000  0.0000
                                        Bottom of conduction at :   0.0000  0.0000  0.0000
 SIGMA fundamental parameters:
 CONTOUR DEFORMATION
 number of plane-waves for SigmaX                23011
 number of plane-waves for SigmaC and W            181
 number of plane-waves for wavefunctions         23011
 number of bands                                   200
 number of independent spin polarizations            1
 number of spinorial components                      1
 number of k-points in IBZ                          28
 number of q-points in IBZ                          28
 number of symmetry operations                       4
 number of k-points in BZ                           96
 number of q-points in BZ                           96
 number of frequencies for dSigma/dE                 9
 frequency step for dSigma/dE [eV]                0.25
 number of omega for Sigma on real axis           1000
 max omega for Sigma on real axis  [eV]          30.00
 zcut for avoiding poles [eV]                     0.10

 EPSILON^-1 parameters (SCR file):
 dimension of the eps^-1 matrix on file            181
 dimension of the eps^-1 matrix used               181
 number of plane-waves for wavefunctions         23011
 number of bands                                   200
 number of q-points in IBZ                          28
 number of frequencies                            1006
 number of real frequencies                       1000
 number of imag frequencies                          6

 matrix elements of self-energy operator (all in [eV])

 Self-Consistent on Energies only

 k =    0.000   0.000   0.000
 Band     E_lda   <Vxclda>   E(N-1)  <Hhartree>   SigX  SigC[E(N-1)]    Z     dSigC/dE  Sig[E(N)]  DeltaE  E(N)_pert E(N)_diago
    9   -13.507   -26.630   -15.910    13.123   -37.343     8.307     1.026     0.025   -29.037    -0.003   -15.913   -15.913
   10   -12.711   -27.781   -15.284    15.070   -37.825     7.467     1.052     0.049   -30.359    -0.004   -15.288   -15.288
   11   -12.392   -29.458   -15.271    17.308   -39.587     7.005     1.064     0.060   -32.582    -0.003   -15.274   -15.274
   12   -12.376   -29.685   -15.261    17.308   -39.587     7.015     1.061     0.057   -32.572    -0.003   -15.264   -15.264
   13   -12.376   -29.685   -15.242    17.066   -39.053     6.743     1.085     0.078   -32.310    -0.002   -15.243   -15.243
   14   -12.304   -28.977   -15.147    17.438   -39.314     6.728     1.068     0.063   -32.586     0.000   -15.148   -15.148
   15   -12.232   -29.670   -15.042    17.808   -39.559     6.709     1.058     0.055   -32.851     0.000   -15.042   -15.042
   16   -12.134   -29.942   -15.039    16.674   -38.914     7.202     1.021     0.021   -31.712     0.001   -15.038   -15.038
   17   -12.119   -29.976   -15.005    17.858   -39.582     6.719     1.056     0.053   -32.863     0.001   -15.005   -15.005
   18   -12.119   -29.976   -14.994    17.858   -39.582     6.730     1.052     0.049   -32.852     0.000   -14.994   -14.994
   19   -11.429   -20.619   -13.069     9.190   -31.725     9.466     1.000     0.000   -22.259     0.001   -13.069   -13.069
   20    -9.495   -19.699   -11.111    10.204   -31.378    10.062     0.993    -0.007   -21.316    -0.001   -11.112   -11.112
   21    -9.495   -19.699   -11.103    10.204   -31.378    10.069     1.002     0.002   -21.309    -0.002   -11.105   -11.105
   22    -7.588   -23.559    -9.453    15.971   -34.173     8.761     0.933    -0.072   -25.413     0.010    -9.442    -9.442
   23    -1.076   -17.505    -1.409    16.428   -23.329     5.488     1.168     0.144   -17.842    -0.004    -1.413    -1.413
   24     3.065   -17.749     2.660    20.813   -23.198     5.046     1.086     0.079   -18.152     0.001     2.661     2.661
   25     3.065   -17.749     2.666    20.813   -23.198     5.052     1.088     0.081   -18.146     0.001     2.667     2.667
   26     3.162   -18.075     2.829    21.237   -23.364     4.956     1.112     0.100   -18.408     0.000     2.829     2.829
   27     4.093   -16.751     3.411    20.844   -23.093     5.667     1.088     0.081   -17.426     0.006     3.418     3.417
   28     5.150   -19.646     4.976    24.797   -24.321     4.498     1.048     0.046   -19.823    -0.002     4.974     4.974
   29     5.338   -20.677     5.100    26.015   -25.339     4.421     1.066     0.062   -20.917    -0.002     5.098     5.098
   30     6.001   -20.509     5.788    26.511   -25.207     4.483     1.015     0.015   -20.724    -0.001     5.787     5.787
   31     6.001   -20.509     5.795    26.511   -25.207     4.490     1.014     0.014   -20.717    -0.001     5.794     5.794
   32     6.460   -19.759     6.158    26.219   -25.167     5.104     1.001     0.001   -20.063    -0.001     6.157     6.157
   33     6.460   -19.759     6.158    26.219   -25.167     5.105     1.001     0.001   -20.062    -0.001     6.157     6.157
   34     7.260   -20.052     6.882    27.312   -25.867     5.436     0.976    -0.025   -20.431    -0.001     6.881     6.881
   35     8.202   -17.483     9.094    25.686   -13.330    -3.262     1.112     0.101   -16.591     0.001     9.094     9.094
   36    12.994   -17.062    14.305    26.509    -7.704    -4.498     1.132     0.117   -12.203     0.001    14.306    14.306
   37    13.237   -13.272    14.310    26.509    -7.704    -4.493     1.133     0.117   -12.198     0.001    14.311    14.311
   38    13.237   -13.272    14.438    30.056   -11.079    -4.539     1.185     0.156   -15.618    -0.001    14.437    14.438
   39    17.186   -15.179    18.410    27.971    -4.945    -4.614     1.165     0.142    -9.559     0.002    18.412    18.412
   40    17.312   -10.659    18.876    32.364    -8.290    -5.199     1.154     0.134   -13.489    -0.001    18.875    18.875
   41    18.963   -17.065    20.766    36.028    -9.615    -5.650     1.295     0.228   -15.265    -0.003    20.763    20.764
   42    18.963   -17.065    20.768    36.028    -9.615    -5.648     1.293     0.226   -15.263    -0.003    20.765    20.766
   43    19.732   -14.488    21.081    33.537    -7.621    -4.836     1.134     0.118   -12.458    -0.002    21.080    21.080
   44    19.746   -13.791    21.099    34.219    -7.565    -5.557     1.157     0.136   -13.122    -0.002    21.097    21.097
   45    21.827   -18.086    23.822    39.913    -9.432    -6.658     1.271     0.213   -16.091     0.001    23.823    23.822
   46    23.667    -9.767    24.796    33.434    -3.598    -5.044     1.381     0.276    -8.643    -0.006    24.791    24.792

 E^0_gap          2.211
 E^GW_gap         2.213
 DeltaE^GW_gap    0.002


 k =    0.250   0.000   0.000
 Band     E_lda   <Vxclda>   E(N-1)  <Hhartree>   SigX  SigC[E(N-1)]    Z     dSigC/dE  Sig[E(N)]  DeltaE  E(N)_pert E(N)_diago
    9   -13.409   -26.774   -15.834    13.365   -37.430     8.230     1.040     0.038   -29.199     0.000   -15.835   -15.835
   10   -12.826   -27.868   -15.411    15.042   -38.035     7.577     1.076     0.071   -30.458    -0.004   -15.415   -15.415
   11   -12.393   -29.381   -15.266    17.327   -39.604     7.009     1.060     0.057   -32.595    -0.002   -15.268   -15.267
   12   -12.372   -29.698   -15.263    17.326   -39.602     7.012     1.064     0.060   -32.590    -0.002   -15.264   -15.264
   13   -12.372   -29.699   -15.224    16.988   -39.001     6.789     1.079     0.073   -32.213    -0.001   -15.225   -15.225
   14   -12.368   -28.703   -15.129    17.498   -39.354     6.726     1.066     0.062   -32.628     0.000   -15.129   -15.129
   15   -12.216   -29.714   -15.071    16.335   -38.602     7.198     1.015     0.015   -31.404     0.002   -15.068   -15.068
   16   -12.146   -29.909   -15.055    17.764   -39.530     6.712     1.060     0.057   -32.818     0.000   -15.055   -15.055
   17   -12.124   -29.958   -15.004    17.835   -39.562     6.723     1.056     0.053   -32.839     0.000   -15.004   -15.004
   18   -12.124   -29.959   -15.004    17.834   -39.561     6.723     1.055     0.052   -32.838     0.000   -15.003   -15.003
   19   -11.240   -20.062   -12.835     8.822   -31.287     9.635     0.978    -0.023   -21.652     0.005   -12.830   -12.830
   20    -9.909   -19.597   -11.505     9.688   -31.133     9.932     1.007     0.007   -21.201    -0.007   -11.513   -11.513
   21    -9.116   -20.724   -10.808    11.607   -32.166     9.758     1.002     0.002   -22.409     0.007   -10.801   -10.801
   22    -7.743   -23.256    -9.591    15.513   -34.072     8.969     0.937    -0.068   -25.103     0.000    -9.590    -9.590
   23    -0.667   -17.423    -1.030    16.756   -23.143     5.353     1.127     0.113   -17.791    -0.005    -1.035    -1.035
   24     2.095   -17.769     1.702    19.864   -23.101     4.940     1.034     0.033   -18.160     0.001     1.703     1.703
   25     3.391   -17.793     2.939    21.185   -23.266     5.022     1.038     0.037   -18.244     0.001     2.940     2.940
   26     3.403   -18.262     3.079    21.665   -23.489     4.902     1.068     0.064   -18.587    -0.001     3.079     3.079
   27     4.442   -17.365     3.811    21.807   -23.444     5.446     1.091     0.083   -17.998    -0.002     3.809     3.810
   28     4.779   -19.368     4.483    24.147   -24.202     4.537     1.058     0.055   -19.665    -0.002     4.482     4.482
   29     5.431   -19.044     5.121    24.475   -23.786     4.431     1.138     0.121   -19.355    -0.002     5.120     5.120
   30     5.614   -19.910     5.291    25.524   -25.069     4.835     1.041     0.040   -20.234    -0.001     5.290     5.290
   31     6.015   -20.492     5.814    26.507   -25.175     4.481     1.012     0.012   -20.694    -0.001     5.813     5.813
   32     6.036   -20.470     5.851    26.506   -25.115     4.459     1.011     0.011   -20.656    -0.001     5.850     5.850
   33     6.504   -19.793     6.193    26.297   -25.237     5.132     0.997    -0.003   -20.105    -0.001     6.192     6.192
   34     6.964   -19.640     6.577    26.604   -25.385     5.357     1.019     0.019   -20.028    -0.001     6.576     6.576
   35     9.524   -18.505    10.533    28.029   -14.579    -2.923     1.109     0.099   -17.503    -0.007    10.526    10.527
   36    12.586   -17.588    14.013    30.174   -11.938    -4.218     1.192     0.161   -16.154     0.007    14.020    14.019
   37    13.508   -13.274    14.591    26.781    -7.733    -4.457     1.158     0.137   -12.190     0.000    14.591    14.591
   38    13.649   -13.665    14.818    27.314    -7.903    -4.592     1.150     0.131   -12.496     0.001    14.818    14.818
   39    17.773   -15.533    19.271    32.210    -8.021    -4.920     1.125     0.111   -12.940    -0.001    19.270    19.270
   40    17.798   -14.412    19.505    33.306    -8.490    -5.312     1.151     0.131   -13.802    -0.002    19.504    19.504
   41    18.486   -16.710    20.190    35.196    -9.508    -5.502     1.188     0.158   -15.012    -0.005    20.185    20.185
   42    19.021   -13.585    20.445    32.606    -6.848    -5.314     1.153     0.133   -12.162    -0.001    20.444    20.444
   43    19.654   -13.194    20.944    32.848    -7.065    -4.840     1.191     0.161   -11.905    -0.001    20.943    20.943
   44    19.838   -13.616    21.132    33.454    -6.898    -5.423     1.186     0.157   -12.321     0.000    21.132    21.132
   45    20.965   -17.387    22.929    38.352    -9.198    -6.234     1.164     0.141   -15.434    -0.011    22.918    22.920
   46    23.447   -11.928    24.693    35.375    -5.095    -5.589     1.159     0.137   -10.684    -0.003    24.691    24.691

 E^0_gap          3.957
 E^GW_gap         3.950
 DeltaE^GW_gap   -0.007


 k =    0.500   0.000   0.000
 Band     E_lda   <Vxclda>   E(N-1)  <Hhartree>   SigX  SigC[E(N-1)]    Z     dSigC/dE  Sig[E(N)]  DeltaE  E(N)_pert E(N)_diago
    9   -13.141   -27.247   -15.643    14.106   -37.719     7.967     1.068     0.064   -29.752    -0.003   -15.646   -15.646
[...]
   34     6.424   -19.350     5.973    25.774   -25.393     5.592     0.983    -0.018   -19.800     0.000     5.974     5.974
   35    11.696   -17.760    13.092    29.455   -12.244    -4.120     1.074     0.069   -16.364     0.000    13.092    13.092
   36    11.696   -17.760    13.096    29.455   -12.244    -4.115     1.075     0.070   -16.360     0.000    13.096    13.096
   37    15.879   -12.738    17.018    28.617    -6.934    -4.663     1.119     0.106   -11.596     0.003    17.021    17.021
   38    15.879   -12.738    17.020    28.617    -6.934    -4.661     1.119     0.106   -11.595     0.003    17.023    17.022
   39    17.902   -16.363    19.549    34.265    -9.274    -5.443     1.175     0.149   -14.717    -0.002    19.547    19.548
   40    17.902   -16.363    19.557    34.265    -9.274    -5.434     1.175     0.149   -14.709    -0.002    19.556    19.556
   41    18.169   -17.409    19.827    35.578   -10.072    -5.680     1.080     0.074   -15.751    -0.001    19.826    19.826
   42    18.169   -17.409    19.831    35.578   -10.072    -5.675     1.079     0.074   -15.747     0.000    19.830    19.831
   43    20.272   -12.870    21.522    33.142    -6.489    -5.132     1.312     0.238   -11.622    -0.002    21.520    21.521
   44    20.272   -12.870    21.523    33.142    -6.489    -5.131     1.309     0.236   -11.620    -0.001    21.521    21.522
   45    22.468   -11.095    23.572    33.563    -4.916    -5.078     1.279     0.218    -9.994    -0.002    23.569    23.570
   46    22.468   -11.095    23.572    33.563    -4.916    -5.078     1.281     0.219    -9.994    -0.003    23.570    23.570

 E^0_gap          7.118
 E^GW_gap         7.118
 DeltaE^GW_gap    0.000


 New Fermi energy :        2.935495E-01 Ha ,    7.987889E+00 eV

 === QP Band Gaps ===
  >>>> For spin  1
   Minimum optical gap =   2.2128 [eV], located at k-point      :   0.0000  0.0000  0.0000
   Fundamental gap     =   2.2128 [eV], Top of valence bands at :   0.0000  0.0000  0.0000
                                        Bottom of conduction at :   0.0000  0.0000  0.0000

 writing QP data on file : out_gw_DS4_QPS

 Convergence of QP corrections
 >>>>> For spin  1 <<<<<
   kptgw no:  1; Maximum DeltaE = (  -0.002   0.200) for band index: 13
   kptgw no:  2; Maximum DeltaE = (  -0.002   0.340) for band index: 12
   kptgw no:  3; Maximum DeltaE = (  -0.001   0.337) for band index: 12
   kptgw no:  4; Maximum DeltaE = (   0.000   0.203) for band index: 13
   kptgw no:  5; Maximum DeltaE = (  -0.002   0.338) for band index: 12
   kptgw no:  6; Maximum DeltaE = (   0.000   0.205) for band index: 13
   kptgw no:  7; Maximum DeltaE = (  -0.001   0.200) for band index: 14
   kptgw no:  8; Maximum DeltaE = (  -0.001   0.176) for band index: 13
   kptgw no:  9; Maximum DeltaE = (  -0.001   0.433) for band index: 11
   kptgw no: 10; Maximum DeltaE = (  -0.001   0.419) for band index: 12
   kptgw no: 11; Maximum DeltaE = (  -0.001   0.179) for band index: 13
   kptgw no: 12; Maximum DeltaE = (  -0.001   0.436) for band index: 12
   kptgw no: 13; Maximum DeltaE = (  -0.001   0.178) for band index: 13
   kptgw no: 14; Maximum DeltaE = (  -0.001   0.176) for band index: 14
   kptgw no: 15; Maximum DeltaE = (  -0.001   0.568) for band index: 11
   kptgw no: 16; Maximum DeltaE = (   0.000   0.485) for band index: 11
   kptgw no: 17; Maximum DeltaE = (  -0.003   0.407) for band index: 12
   kptgw no: 18; Maximum DeltaE = (   0.001   0.526) for band index: 11
   kptgw no: 19; Maximum DeltaE = (  -0.001   0.464) for band index: 12
   kptgw no: 20; Maximum DeltaE = (   0.001   0.523) for band index: 11
   kptgw no: 21; Maximum DeltaE = (   0.000   0.123) for band index: 14
   kptgw no: 22; Maximum DeltaE = (   0.001   0.489) for band index: 12
   kptgw no: 23; Maximum DeltaE = (  -0.002   0.422) for band index: 12
   kptgw no: 24; Maximum DeltaE = (  -0.004   0.350) for band index: 12
   kptgw no: 25; Maximum DeltaE = (   0.000   0.493) for band index: 11
   kptgw no: 26; Maximum DeltaE = (  -0.002   0.430) for band index: 12
   kptgw no: 27; Maximum DeltaE = (   0.000   0.490) for band index: 11
   kptgw no: 28; Maximum DeltaE = (  -0.001   0.493) for band index: 12

== END DATASET(S) ==============================================================
================================================================================
  
 -outvars: echo values of variables after computation  --------
            acell      8.9311033812E+00  8.9311033812E+00  6.0294376969E+00 Bohr
              amu      1.18710000E+02  1.59994000E+01
             bdgw           9      46       9      46       9      46       9      46
                            9      46       9      46       9      46       9      46
                            9      46       9      46       9      46       9      46
                            9      46       9      46       9      46       9      46
                            9      46       9      46       9      46       9      46
                            9      46       9      46       9      46       9      46
                            9      46       9      46       9      46       9      46
      chksymbreak           0
             ecut      9.99771778E+01 Hartree
         ecutsigx      9.99771778E+01 Hartree
          ecutwfn      9.99771778E+01 Hartree
           etotal4     0.0000000000E+00
            fcart4     0.0000000000E+00  0.0000000000E+00  0.0000000000E+00
                       0.0000000000E+00  0.0000000000E+00  0.0000000000E+00
                       0.0000000000E+00  0.0000000000E+00  0.0000000000E+00
                       0.0000000000E+00  0.0000000000E+00  0.0000000000E+00
                       0.0000000000E+00  0.0000000000E+00  0.0000000000E+00
                       0.0000000000E+00  0.0000000000E+00  0.0000000000E+00
        freqspmin     -1.10247976E+00 Hartree
        freqspmax      1.10247976E+00 Hartree
           getqps          -1
           getscr           1
           getkss           1
        gwcalctyp          12
            gwmem           0
           gwpara           2
           istwfk        1    0    1    0    0    0    1    0    0    0
                         0    0    0    0    0    0    0    0    0    0
                         0    1    0    1    0    0    0    1
              ixc           7
           jdtset        4
              kpt      0.00000000E+00  0.00000000E+00  0.00000000E+00
                       2.50000000E-01  0.00000000E+00  0.00000000E+00
                       5.00000000E-01  0.00000000E+00  0.00000000E+00
                       2.50000000E-01  2.50000000E-01  0.00000000E+00
                       5.00000000E-01  2.50000000E-01  0.00000000E+00
                      -2.50000000E-01  2.50000000E-01  0.00000000E+00
                       5.00000000E-01  5.00000000E-01  0.00000000E+00
                       0.00000000E+00  0.00000000E+00  1.66666667E-01
                       2.50000000E-01  0.00000000E+00  1.66666667E-01
                       5.00000000E-01  0.00000000E+00  1.66666667E-01
                       2.50000000E-01  2.50000000E-01  1.66666667E-01
                       5.00000000E-01  2.50000000E-01  1.66666667E-01
                      -2.50000000E-01  2.50000000E-01  1.66666667E-01
                       5.00000000E-01  5.00000000E-01  1.66666667E-01
                       0.00000000E+00  0.00000000E+00  3.33333333E-01
                       2.50000000E-01  0.00000000E+00  3.33333333E-01
                       5.00000000E-01  0.00000000E+00  3.33333333E-01
                       2.50000000E-01  2.50000000E-01  3.33333333E-01
                       5.00000000E-01  2.50000000E-01  3.33333333E-01
                      -2.50000000E-01  2.50000000E-01  3.33333333E-01
                       5.00000000E-01  5.00000000E-01  3.33333333E-01
                       0.00000000E+00  0.00000000E+00  5.00000000E-01
                       2.50000000E-01  0.00000000E+00  5.00000000E-01
                       5.00000000E-01  0.00000000E+00  5.00000000E-01
                       2.50000000E-01  2.50000000E-01  5.00000000E-01
                       5.00000000E-01  2.50000000E-01  5.00000000E-01
                      -2.50000000E-01  2.50000000E-01  5.00000000E-01
                       5.00000000E-01  5.00000000E-01  5.00000000E-01
            kptgw      0.00000000E+00  0.00000000E+00  0.00000000E+00
                       2.50000000E-01  0.00000000E+00  0.00000000E+00
                       5.00000000E-01  0.00000000E+00  0.00000000E+00
                       2.50000000E-01  2.50000000E-01  0.00000000E+00
                       5.00000000E-01  2.50000000E-01  0.00000000E+00
                      -2.50000000E-01  2.50000000E-01  0.00000000E+00
                       5.00000000E-01  5.00000000E-01  0.00000000E+00
                       0.00000000E+00  0.00000000E+00  1.66666667E-01
                       2.50000000E-01  0.00000000E+00  1.66666667E-01
                       5.00000000E-01  0.00000000E+00  1.66666667E-01
                       2.50000000E-01  2.50000000E-01  1.66666667E-01
                       5.00000000E-01  2.50000000E-01  1.66666667E-01
                      -2.50000000E-01  2.50000000E-01  1.66666667E-01
                       5.00000000E-01  5.00000000E-01  1.66666667E-01
                       0.00000000E+00  0.00000000E+00  3.33333333E-01
                       2.50000000E-01  0.00000000E+00  3.33333333E-01
                       5.00000000E-01  0.00000000E+00  3.33333333E-01
                       2.50000000E-01  2.50000000E-01  3.33333333E-01
                       5.00000000E-01  2.50000000E-01  3.33333333E-01
                      -2.50000000E-01  2.50000000E-01  3.33333333E-01
                       5.00000000E-01  5.00000000E-01  3.33333333E-01
                       0.00000000E+00  0.00000000E+00  5.00000000E-01
                       2.50000000E-01  0.00000000E+00  5.00000000E-01
                       5.00000000E-01  0.00000000E+00  5.00000000E-01
                       2.50000000E-01  2.50000000E-01  5.00000000E-01
                       5.00000000E-01  2.50000000E-01  5.00000000E-01
                      -2.50000000E-01  2.50000000E-01  5.00000000E-01
                       5.00000000E-01  5.00000000E-01  5.00000000E-01
          kptrlen      3.57244135E+01
         kptrlatt      4  0  0   0  4  0   0  0  6
P           mkmem           1
            natom           6
            nband         200
           ndtset           1
          nfreqsp        1000
            ngfft          90      90      60
           nkptgw          28
             nkpt          28
          npwsigx       23011
           npwwfn       23011
          nshsigx        3199
           nshwfn        3199
             nsym           8
           ntypat           2
              occ      2.000000  2.000000  2.000000  2.000000  2.000000  2.000000
                       2.000000  2.000000  2.000000  2.000000  2.000000  2.000000
                       2.000000  2.000000  2.000000  2.000000  2.000000  2.000000
                       2.000000  2.000000  2.000000  2.000000  2.000000  2.000000
                       2.000000  2.000000  2.000000  2.000000  2.000000  2.000000
                       2.000000  2.000000  2.000000  2.000000  0.000000  0.000000
                       0.000000  0.000000  0.000000  0.000000  0.000000  0.000000
                       0.000000  0.000000  0.000000  0.000000  0.000000  0.000000
                       0.000000  0.000000  0.000000  0.000000  0.000000  0.000000
                       0.000000  0.000000  0.000000  0.000000  0.000000  0.000000
                       0.000000  0.000000  0.000000  0.000000  0.000000  0.000000
                       0.000000  0.000000  0.000000  0.000000  0.000000  0.000000
                       0.000000  0.000000  0.000000  0.000000  0.000000  0.000000
                       0.000000  0.000000  0.000000  0.000000  0.000000  0.000000
                       0.000000  0.000000  0.000000  0.000000  0.000000  0.000000
                       0.000000  0.000000  0.000000  0.000000  0.000000  0.000000
                       0.000000  0.000000  0.000000  0.000000  0.000000  0.000000
                       0.000000  0.000000  0.000000  0.000000  0.000000  0.000000
                       0.000000  0.000000  0.000000  0.000000  0.000000  0.000000
                       0.000000  0.000000  0.000000  0.000000  0.000000  0.000000
                       0.000000  0.000000  0.000000  0.000000  0.000000  0.000000
                       0.000000  0.000000  0.000000  0.000000  0.000000  0.000000
                       0.000000  0.000000  0.000000  0.000000  0.000000  0.000000
                       0.000000  0.000000  0.000000  0.000000  0.000000  0.000000
                       0.000000  0.000000  0.000000  0.000000  0.000000  0.000000
                       0.000000  0.000000  0.000000  0.000000  0.000000  0.000000
                       0.000000  0.000000  0.000000  0.000000  0.000000  0.000000
                       0.000000  0.000000  0.000000  0.000000  0.000000  0.000000
                       0.000000  0.000000  0.000000  0.000000  0.000000  0.000000
                       0.000000  0.000000  0.000000  0.000000  0.000000  0.000000
                       0.000000  0.000000  0.000000  0.000000  0.000000  0.000000
                       0.000000  0.000000  0.000000  0.000000  0.000000  0.000000
                       0.000000  0.000000  0.000000  0.000000  0.000000  0.000000
                       0.000000  0.000000
        optdriver           4
          ppmodel           0
          spgroup         136
           strten4     0.0000000000E+00  0.0000000000E+00  0.0000000000E+00
                       0.0000000000E+00  0.0000000000E+00  0.0000000000E+00
        symmorphi           0
           symrel      1  0  0   0  1  0   0  0  1      -1  0  0   0 -1  0   0  0 -1
                      -1  0  0   0 -1  0   0  0  1       1  0  0   0  1  0   0  0 -1
                       0  1  0   1  0  0   0  0  1       0 -1  0  -1  0  0   0  0 -1
                       0 -1  0  -1  0  0   0  0  1       0  1  0   1  0  0   0  0 -1
            typat      1  1  2  2  2  2
              wtk        0.01042    0.04167    0.02083    0.02083    0.04167    0.02083
                         0.01042    0.02083    0.08333    0.04167    0.04167    0.08333
                         0.04167    0.02083    0.02083    0.08333    0.04167    0.04167
                         0.08333    0.04167    0.02083    0.01042    0.04167    0.02083
                         0.02083    0.04167    0.02083    0.01042
           xangst      0.0000000000E+00  0.0000000000E+00  0.0000000000E+00
                       2.3630681784E+00  2.3630681784E+00  1.5953205049E+00
                       1.4470217143E+00  1.4470217143E+00  0.0000000000E+00
                      -1.4470217143E+00 -1.4470217143E+00  0.0000000000E+00
                       3.8100898928E+00  9.1604646412E-01  1.5953205049E+00
                       9.1604646412E-01  3.8100898928E+00  1.5953205049E+00
            xcart      0.0000000000E+00  0.0000000000E+00  0.0000000000E+00
                       4.4655516906E+00  4.4655516906E+00  3.0147188484E+00
                       2.7344747484E+00  2.7344747484E+00  0.0000000000E+00
                      -2.7344747484E+00 -2.7344747484E+00  0.0000000000E+00
                       7.2000264390E+00  1.7310769422E+00  3.0147188484E+00
                       1.7310769422E+00  7.2000264390E+00  3.0147188484E+00
             xred      0.0000000000E+00  0.0000000000E+00  0.0000000000E+00
                       5.0000000000E-01  5.0000000000E-01  5.0000000000E-01
                       3.0617434730E-01  3.0617434730E-01  0.0000000000E+00
                      -3.0617434730E-01 -3.0617434730E-01  0.0000000000E+00
                       8.0617434730E-01  1.9382565270E-01  5.0000000000E-01
                       1.9382565270E-01  8.0617434730E-01  5.0000000000E-01
            znucl       50.00000    8.00000

================================================================================


- Timing analysis has been suppressed with timopt=0



================================================================================

 Suggested references for the acknowledgment of ABINIT usage.

 The users of ABINIT have little formal obligations with respect to the ABINIT group
 (those specified in the GNU General Public License, http://www.gnu.org/copyleft/gpl.txt).
 However, it is common practice in the scientific literature,
 to acknowledge the efforts of people that have made the research possible.
 In this spirit, please find below suggested citations of work written by ABINIT developers,
 corresponding to implementations inside of ABINIT that you have used in the present run.
 Note also that it will be of great value to readers of publications presenting these results,
 to read papers enabling them to understand the theoretical formalism and details
 of the ABINIT implementation.
 For information on why they are suggested, see also http://www.abinit.org/about/?text=acknowledgments.

 [1] Effect of self-consistency on quasiparticles in solids
 F. Bruneval, N. Vast, L. Reining, Phys. Rev. B 74, 045102 (2006).
 Comment : in case gwcalctyp >= 10.

 [2] Ab initio pseudopotentials for electronic structure calculations of poly-atomic systems, 
 using density-functional theory.
 M. Fuchs, M. Scheffler, Comput. Phys. Commun. 119, 67 (1999).
 Comment : Some pseudopotential generated using the FHI code were used.

 [3] ABINIT : First-principles approach of materials and nanosystem properties.
 X. Gonze, B. Amadon, P.-M. Anglade, J.-M. Beuken, F. Bottin, P. Boulanger, F. Bruneval,
 D. Caliste, R. Caracas, M. Cote, T. Deutsch, L. Genovese, Ph. Ghosez, M. Giantomassi
 S. Goedecker, D.R. Hamann, P. Hermet, F. Jollet, G. Jomard, S. Leroux, M. Mancini, S. Mazevet,
 M.J.T. Oliveira, G. Onida, Y. Pouillon, T. Rangel, G.-M. Rignanese, D. Sangalli, R. Shaltaf,
 M. Torrent, M.J. Verstraete, G. Zerah, J.W. Zwanziger
 Computer Phys. Comm. 180, 2582-2615 (2009).
 Comment : the third generic paper describing the ABINIT project.
 Note that a version of this paper, that is not formatted for Computer Phys. Comm. 
 is available at http://www.abinit.org/about/ABINIT_CPC_v10.pdf .
 The licence allows the authors to put it on the Web.

 [4] A brief introduction to the ABINIT software package.
 X. Gonze, G.-M. Rignanese, M. Verstraete, J.-M. Beuken, Y. Pouillon, R. Caracas, F. Jollet,
 M. Torrent, G. Zerah, M. Mikami, Ph. Ghosez, M. Veithen, J.-Y. Raty, V. Olevano, F. Bruneval,
 L. Reining, R. Godby, G. Onida, D.R. Hamann, and D.C. Allan.
 Z. Kristallogr. 220, 558-562 (2005).
 Comment : the second generic paper describing the ABINIT project. Note that this paper
 should be cited especially if you are using the GW part of ABINIT, as several authors
 of this part are not in the list of authors of the first or third paper.
 The .pdf of the latter paper is available at http://www.abinit.org/about/zfk_0505-06_558-562.pdf.
 Note that it should not redistributed (Copyright by Oldenburg Wissenshaftverlag,
 the licence allows the authors to put it on the Web).


 And optionally :

 [5] First-principles computation of material properties : the ABINIT software project. 
 X. Gonze, J.-M. Beuken, R. Caracas, F. Detraux, M. Fuchs, G.-M. Rignanese, L. Sindic,
 M. Verstraete, G. Zerah, F. Jollet, M. Torrent, A. Roy, M. Mikami, Ph. Ghosez, J.-Y. Raty, D.C. Allan.
 Computational Materials Science 25, 478-492 (2002). http://dx.doi.org/10.1016/S0927-0256(02)00325-7
 Comment : the original paper describing the ABINIT project.
-
- Proc.   0 individual time (sec): cpu=     188678.1  wall=     188721.9

================================================================================

 Calculation completed.
.Delivered 1072 WARNINGs and  38 COMMENTs to log file.
+Overall time at end (sec) : cpu=    9056675.3  wall=    9058653.1
